material_id,pretty_formula,formation_energy_per_atom
mp-29793,Na2V3O7,-2.4285066665625
mp-29794,Ba2PdF6,-3.31422029246
mp-29796,Ho(AlCl4)3,-2.155842183278333
mp-29798,TlBrO3,-0.6534162727499997
mp-29799,KBiO3,-1.5866801388499998
mp-2980,Pr2Te4O11,-2.276590492573529
mp-29808,Ca4GeN4,-0.9858231618911112
mp-29809,Ca2GeN2,-0.9627233249519996
mp-2981,CaTeO3,-2.409942282194445
mp-29811,Hf3P3Pd4,-0.9808528953214278
mp-29815,LaAs2,-1.0632273083333328
mp-29816,Ag2HgO2,-0.4658374813333335
mp-29817,GaP2I9,-0.2340152229910715
mp-29819,Ba2Si3Ni,-0.4720731513888891
mp-29820,Ca3(AlN2)2,-1.3044245367522214
mp-29821,Gd4B3C4,-0.4138633222727282
mp-29824,La3RuI3,-1.128939157142857
mp-29825,K2Si2O5,-2.91428089025
mp-29826,ZnCN2,-0.2641348674399992
mp-29829,LiAuS,-0.9432289374305564
mp-2983,Ba(PN2)2,-1.0527811365470745
mp-29831,TaCl5,-1.8399323293833336
mp-29832,Sm10Se19,-1.6434982464780887
mp-29833,Bi2(SeO3)3,-1.464629209698661
mp-29834,Cs4SiSe4,-1.0865315692887931
mp-29835,K2SnTe3,-0.6905860489166665
mp-29836,Na3HoCl6,-2.357067244456
mp-29839,Bi2SeO5,-1.590613836074218
mp-29841,Rh3S4,-0.8627225908333335
mp-29842,CsReF8,-2.619311786245104
mp-29843,Bi2Se2Cl7,-1.103099437273409
mp-29844,Tb(AlCl4)3,-2.162082510778333
mp-29845,CsHgCl3,-1.5451633088755403
mp-29846,Tb10B2Br15,-1.5417077724691357
mp-29847,Tb4BBr6,-1.528454928030303
mp-29849,Ag3SnP7,-0.050254504090909
mp-2985,HoB2Ru3,-0.4777495294444449
mp-29862,SnBr2,-0.7830409841666665
mp-29863,AsCl3O,-1.1498510267059998
mp-29866,SnCl4,-1.4151939146079997
mp-29870,Ir(Cl2F3)2,-1.4064668918345455
mp-29871,Na4SeO5,-1.703464755359375
mp-29873,Rb2CdCl4,-1.9361674040057144
mp-29877,K2ReH9,-0.375274224881666
mp-29878,Re2PCl13,-1.123661359121964
mp-2988,Li2GaRh,-0.4935540908333333
mp-29880,Sm2SCl4,-2.652772064690238
mp-29882,CsPdCl3,-1.4723708750422069
mp-29883,Rb3PbCl5,-2.0180328348666667
mp-29884,ZnNi10P3,-0.4259364348129253
mp-29885,Ni10SnP3,-0.4334458027891156
mp-29887,Pr(ClO4)3,-1.1097622065487505
mp-29888,Er(ClO4)3,-1.0895345677987498
mp-29889,Tl2PdCl4,-1.170157219005714
mp-29890,Th2AuF11,-3.614621345935
mp-29892,LiSb3O8,-1.9703407334722207
mp-29893,Hg2MoO4,-1.4102982042857144
mp-29894,Hg2WO4,-1.4468009528571426
mp-29895,Rb3Bi2I9,-0.9346763426785716
mp-29896,Y2B3C2,-0.5044840030952388
mp-29898,Tl2Au4S3,-0.464791819930556
mp-29901,Rb2Cd3Te4,-0.6936106572222221
mp-29903,TlTeF5,-2.438445794778571
mp-29907,Te4Pd9,-0.3264749355769227
mp-29908,Sr11(ReO6)4,-2.8861822164957265
mp-29909,Ba4I6O,-2.066649027386364
mp-2991,Cs2UO4,-3.031148970123152
mp-29910,Sr4I6O,-1.981067554810606
mp-29911,Ba3Sb2O,-1.613934053958334
mp-29912,Sb2MoSe,-0.2707362362109373
mp-29914,Er7(NiTe)2,-0.6683860927272728
mp-29920,Rb5Au3O2,-0.861048787
mp-29922,Sb5PO10,-1.980803117410716
mp-29924,Nb3Cl5O2,-2.07379136763
mp-29926,PW5O17,-2.260931866731366
mp-29931,VRe2O9,-2.186503045520832
mp-29932,Zr5P7Pd9,-0.9358322309523802
mp-29933,Hf5P7Pd9,-0.8891285076190478
mp-29934,Zr6Ag7F31,-3.1530026048914395
mp-29936,Rb2PdI6,-0.7740930161111107
mp-29937,Ho5(ReO6)2,-3.3782358102631576
mp-29938,Ba(GaSb)2,-0.52810358925
mp-2994,Co2(GeTe)3,-0.2235780690625004
mp-29940,SbClF10,-1.8683119743883327
mp-29941,Sc2C,-0.4232099966666662
mp-29943,H5NO5,-1.2224669406118174
mp-29945,Tb2Mo4O15,-2.595156156845237
mp-29946,IO2F,-1.1508744934225
mp-29947,K3PSe16,-0.3448126765035716
mp-29950,Nb3Cl8,-1.7020440223709092
mp-29954,Tb16B4Br23,-1.505730338449612
mp-29955,Hg3(SeI)2,-0.2640740963839287
mp-29956,Hg3(SI)2,-0.4071007505357141
mp-29957,Zr5Te6,-0.8953952663636366
mp-29958,Hg7(PO5)2,-1.4100800460338343
mp-29959,TlBSe3,-0.2316826340729164
mp-29964,La3(TaN3)2,-1.6292966926618184
mp-29966,NOF,-0.9743981949400004
mp-29968,NbSeCl9,-1.30999107072125
mp-2997,ThB2C,-0.5239443874999997
mp-29970,Cs3Sb5O14,-1.9690859189224137
mp-29973,SrN,-0.715645217023333
mp-29975,K3BS3,-1.323521811315477
mp-29976,Na3BS3,-1.2370381575297615
mp-29977,Rb3BS3,-1.3116563982440483
mp-29978,Sr5Al2F16,-4.138958184885796
mp-29981,Nb7(BC)4,-0.6275607848888891
mp-29983,Cs6Cl4O,-1.9633343956251093
mp-29984,Na4MoO5,-2.065656938375
mp-29985,LiNb6Cl19,-1.7710711926387182
mp-29986,La2Al2I,-0.8012526099999995
mp-29988,CsPd2Cl5,-1.2507435627163792
mp-29989,Sm3(SiIr)2,-0.9291013435714278
mp-29990,La3B2N5,-1.5915021719816664
mp-29991,Bi2Te4Cl7,-0.9553191989669227
mp-29992,AsPbF7,-2.583817400925556
mp-29993,TaAgF6,-3.078896801309167
mp-29994,La3C2Br3,-1.29732544578125
mp-29995,La3SiBr3,-1.5160870114285718
mp-29996,La3PI3,-1.4985945258673468
mp-29997,La3AsI3,-1.4690469553571428
mp-29998,La3SbI3,-1.338873395714286
mp-30,Cu,0.0
mp-30001,Ba16Nb5N19,-1.0295746391305003
mp-30002,Sc(IO3)3,-1.4440381304807686
mp-30003,AuSO4,-1.4342176028125
mp-30004,Rb4Br2O,-1.5097241301785718
mp-30005,Rb6Br4O,-1.613163232840909
mp-30006,Co(NO3)2,-1.0460482263622215
mp-30018,Rb2ZnI4,-1.1468917114285713
mp-30019,ZrCu2Te3,-0.4883830066666667
mp-30021,K5Sb4,-0.4297274672222223
mp-30023,Ba(AlCl4)2,-2.2815251446436364
mp-30024,Sr(AlCl4)2,-2.2580432360451512
mp-30026,Sr3Te4O11,-2.265181437430556
mp-30031,CaI2,-1.643792675
mp-30033,CoBr2,-0.3201356149999999
mp-30034,MgBr2,-1.5088933811111112
mp-30039,Na2Al2Sb3,-0.2878952567857143
mp-30041,RbBiS2,-1.0967995859375002
mp-30045,CoGe2,-0.156818769166667
mp-30047,Sn2Mo,0.0022263922222225
mp-30050,Ba(GeRu)2,-0.4726439349999992
mp-30052,Ni6Mo6C,-0.0942367396153838
mp-30055,Rb3BrO,-1.3966687087500005
mp-30056,CsCaBr3,-1.9873809105862064
mp-30058,TlSbO3,-1.7235750987499998
mp-3006,P2Pd3S8,-0.7354124293956047
mp-30060,Sn5(BRh3)2,-0.4702592566666663
mp-30061,Sn4BRh6,-0.5084426653030298
mp-30062,Cs2PtBr6,-1.0564581339846744
mp-30066,Sb7Pd20,-0.4458579564814813
mp-30073,La(FeSb3)4,-0.2254527314705875
mp-30075,Ti4FeS8,-1.6169948134615375
mp-30077,K2GaSb2,-0.4205820349500001
mp-30082,Ni19Ge12,-0.3126142541935484
mp-30084,Al2FeO4,-2.980549119285715
mp-30086,GeCl4,-1.405935872608
mp-30088,Ba3P4O13,-3.124155540526787
mp-3009,Rb2BeF4,-3.3269382610371427
mp-30091,MgB9N,-0.4253379864284842
mp-30092,TiCl4,-2.065810134108
mp-30096,Be2Te7Cl6,-0.913481303637333
mp-30097,Bi2Te7Cl8,-0.8166910788870588
mp-30100,Li2B2Se5,-0.511410034079861
mp-30101,Ba4Si3Br2,-1.0280263174999993
mp-30103,AuF5,-1.1547862568250002
mp-30105,Ba2B4Se13,-0.553406321515899
mp-30106,AsCl5,-0.9347955452166672
mp-30108,P2PbAu2,-0.1325765304285717
mp-30109,Sb2(AuF6)3,-1.9936857431052173
mp-3011,Th(GeRh)2,-0.83941813
mp-30111,BaLaI4,-1.6173481058333337
mp-30113,Zr(Se2Cl3)2,-1.2333344724031825
mp-30119,Cs3AsO4,-2.014145605474138
mp-30120,K3BiO4,-1.6559609617499995
mp-30123,Hg2SeO5,-0.9303767073242196
mp-30125,PrTe2Se,-1.159696195585937
mp-30126,Ba(BS2)2,-1.3656738170238103
mp-30127,Rb3B7O12,-2.782772130492424
mp-30129,Li4TaN3,-1.053104597350833
mp-30130,Bi4I2O5,-1.434328718068182
mp-30136,Hg2Mo2O7,-1.6275772635227277
mp-30137,Gd3ReO8,-3.280068718125001
mp-30139,BeBr2,-1.0432523483333336
mp-30140,BeI2,-0.5731110135416669
mp-30142,Be4N6O19,-1.4645589823458622
mp-30143,U(IO4)2,-1.8320550690909088
mp-30145,Rb2Bi8Se13,-0.5248860765421195
mp-30146,CaSn2F6,-3.140369839682222
mp-30147,ZrTiAs,-0.9838838783333336
mp-30149,K6Tl2Sb3,-0.3877377748181816
mp-3015,HoInCu,-0.4126358399999993
mp-30150,GaBH6,-0.0736873654233332
mp-30151,CuAuSe4,-0.0785901132291666
mp-30152,CeSbTe,-1.1298371099999998
mp-30155,Ce3SiPd5,-0.845717334444445
mp-30156,LiMgN,-0.7663651657933332
mp-30158,Sr3Ga4O9,-2.731406733515625
mp-30159,AuBrF6,-1.3200094240175
mp-30161,Si2CN4,-0.8816013870742856
mp-30163,La2Mo4O15,-2.581248819702382
mp-30164,CsSn2Cl5,-1.6578661955288791
mp-30165,Sr7Re4O19,-2.759162362347222
mp-30167,Rb3Os2Br9,-0.8287976783928573
mp-30172,Ho3Ge3Ru2,-0.7824078487500001
mp-30174,Ca4Al51Cr7,-0.1674568469354837
mp-30175,Ca(AlZn)2,-0.290809707
mp-30178,Mg2Al5Cu6,-0.2401935712820518
mp-3018,Nd(MnSi)2,-0.5747597798620688
mp-30181,PrAl3Ni2,-0.5997637791666666
mp-30182,ThAl3Ni2,-0.6544829216666675
mp-30183,ZrAl5Ni2,-0.5905869599999996
mp-30187,Ga2Te4O11,-1.7244780490441172
mp-3019,Tl4SnTe3,-0.2938855556249997
mp-30190,UMo13P9,-0.5473273229192542
mp-30192,Pr4Se3O4,-2.986813504730114
mp-30194,Rb3CoO2,-1.2400572433333334
mp-30195,HoCuP2,-0.8707881080357147
mp-30196,ErCuP2,-0.8716407780357134
mp-30197,K3ErCl6,-2.486772772606
mp-30198,Ba4Ga2O7,-2.771550027083333
mp-3020,BaNbO3,-3.18790944475
mp-30205,Cr2(Bi2O5)3,-1.732965465380435
mp-30206,CsClO4,-1.215443172281839
mp-30207,La3GaBr3,-1.4166767035714285
mp-30208,YCuP2,-0.8696731363690473
mp-30209,LiBH4,-0.4327198540799995
mp-30210,La5Sn3Cl,-1.112986478695556
mp-30211,La5Sn3I,-0.8745766327777775
mp-30212,La5Bi3Br,-1.0873955011111116
mp-30213,Sb2BrF15,-2.198393030852777
mp-30214,SbIF10,-2.301210945575
mp-30215,Pr3MoO7,-3.275842268295454
mp-30218,Ti2P,-1.0647868295238097
mp-30219,KGaCl4,-1.88124159934
mp-30220,Ba3P3I2,-1.2694474297767857
mp-30221,Ba5P5I3,-1.2518494990659337
mp-30222,Cs3BS3,-1.3210912823573475
mp-30223,La2Fe2I,-0.4929130589999992
mp-30224,Si3(Cl4O)2,-2.0773514220061537
mp-30227,Rb2WCl6,-1.7721392071733335
mp-30228,Li4HN,-0.4704074071111108
mp-30229,Tb5C2Br9,-1.60086686453125
mp-30230,Rb4SnS4,-1.3309161502777782
mp-30231,RbGaCl4,-1.89674893884
mp-30232,Tb3SiBr3,-1.400094905357142
mp-30233,Na3As7,-0.2723046401250002
mp-30234,Cs2WCl6,-1.8023991639357857
mp-30235,Lu3Ge3Ir2,-0.9301740712499996
mp-30236,TlAsSe2,-0.245052425703125
mp-30239,Sr3(BS3)2,-1.7568285291287873
mp-30247,Mg(HO)2,-2.0774968866146666
mp-30249,Li4GeS4,-1.3562037754629632
mp-30250,YAgO2,-2.621533069791666
mp-30251,YAuO2,-2.5829207277083333
mp-30252,Na10CaSn12,-0.2769898702173912
mp-30253,Na10SrSn12,-0.2786443907246377
mp-30254,Ba3(LiSn2)4,-0.5282186897777776
mp-30267,CeGa4Os,-0.4636942063888882
mp-30269,HfGa2Ni,-0.5425068772500005
mp-30275,BaP8,-0.3116463231746035
mp-30278,Ce3Ga4Cl,-0.9505427660325
mp-30280,K4(TiTe3)3,-0.8413508443437498
mp-30282,La2I5,-1.5070812192857146
mp-30283,Tb4SiBr6,-1.6128935886363631
mp-30284,HgAsO3,-1.3748670067500002
mp-30285,Sb2MoS,-0.4888983748437496
mp-30286,Hg2SeO3,-0.9291462822656252
mp-30287,LuPS4,-1.457020156428572
mp-30290,Nd2Sn3,-0.7096709279999999
mp-30291,Tb4Se3N2,-1.9067815513101385
mp-30292,Nd4Se3N2,-1.812348585754584
mp-30293,Sr2GeSe4,-1.3022245961011905
mp-30294,Sr2SnS4,-1.7741790015476195
mp-30295,W6CCl18,-1.2405883015472
mp-30298,KAsO2,-1.901094463875
mp-30299,RbAsO2,-1.873750220625
mp-303,BaZn5,-0.2213431266666668
mp-30300,Cs3As5O9,-1.821730590884888
mp-30301,LiClO4,-1.1173243766544438
mp-30303,Bi4O7,-1.580250952159092
mp-30304,Bi3SbO7,-1.7903076689772737
mp-30305,Sr11Bi10,-0.8597687844444449
mp-30307,DyBiRh,-0.7530624077777774
mp-30308,TlAuF6,-1.7533709182362498
mp-30309,Y2Au5F21,-2.2449746979163097
mp-3031,BaSi2O5,-3.37074573953125
mp-30311,Zn3(PS4)2,-0.8658079290109888
mp-30312,Ca2SiIr2,-0.7422689450000007
mp-30313,Tb2Se2O7,-2.6040576234943185
mp-30314,Cs2PdCl4,-1.7406130734145813
mp-30315,Ca3BN3,-1.2510120514961898
mp-3032,RbBF4,-3.329064193432222
mp-30320,RbHfF5,-3.9167489762071424
mp-30321,Y2P4O13,-3.171071706168547
mp-30324,Mg5(Si8Pt5)2,-0.6001886186021493
mp-30325,In2(Se2O5)3,-1.4018526809918477
mp-30328,Ho6FeBi2,-0.4165795000000006
mp-3033,RbTaO3,-3.04333067125
mp-30333,Tb(NiB)2,-0.5536457743333344
mp-30335,Al23V4,-0.1670300796296297
mp-30336,Al4W,-0.1525500279999998
mp-30337,Al5W,-0.1607661166666663
mp-30339,ErAg2,-0.3329528155555555
mp-3034,MgAl2Cu,-0.1821422645833337
mp-30340,ErInAg2,-0.3588077166666665
mp-30342,HoInAg2,-0.3643572791666671
mp-30343,InAg3,-0.0333992325000003
mp-30344,Li2InAg,-0.2921928166666667
mp-30347,ScInAg2,-0.3132569004166665
mp-30349,Li2AgPb,-0.2747320391666665
mp-3035,Ce(FeSi)2,-0.6579422409999992
mp-30352,NaAg2,-0.1035702372222224
mp-30354,ScAg4,-0.1980217076666669
mp-30355,SrAg,-0.3186341475000001
mp-30356,SrAg2,-0.302797146111111
mp-30357,Sr3Ag2,-0.2674252559999999
mp-30358,TbAg2,-0.3150443422222224
mp-30359,TmAg2,-0.3378334300000005
mp-30361,Zn8Ag5,-0.0561665885897436
mp-30363,BaAu2,-0.7404165133333335
mp-30364,BaAu5,-0.4430035000000002
mp-30365,BeAu,-0.1361928937500001
mp-30366,Ca3Au,-0.4859297249999996
mp-30367,Ca5Au2,-0.5592131314285714
mp-30368,Ca5Au3,-0.6913575262499996
mp-30369,Ca7Au3,-0.576898948625
mp-30370,Cd3Au,-0.1437856829166666
mp-30371,Cd5Au3,-0.1769655593749999
mp-30373,RbAu,-0.2714440737500001
mp-30374,DyInAu2,-0.7049328775000001
mp-30375,ErInAu,-0.7312727744444444
mp-30376,ErInAu2,-0.6995635624999998
mp-30377,ErPbAu,-0.6502842733333333
mp-30379,GaAu,-0.2278370612499998
mp-3038,Al2HgSe4,-0.6898538027678575
mp-30381,Li2GaAu,-0.511663945833333
mp-30383,Hf2Au,-0.4374389000000001
mp-30385,Ho2Au,-0.6435962741666668
mp-30386,HoAu3,-0.7224458112499996
mp-30387,HoAu4,-0.5942940700000001
mp-30388,HoInAu2,-0.7026244524999994
mp-30389,HoPbAu,-0.6608128033333335
mp-30390,HoSnAu,-0.8514481866666669
mp-30392,Li2InAu,-0.4769263858333334
mp-30393,LuInAu2,-0.6838781475000002
mp-30395,ScInAu2,-0.6277214987499997
mp-304,Ca2Ge,-0.6198693499999995
mp-3040,TbCo3B2,-0.4840493969444435
mp-30401,KAu2,-0.3048522693333331
mp-30403,Li2PbAu,-0.4102255633333334
mp-30404,Li2SbAu,-0.5331187420833334
mp-30405,Li2SnAu,-0.5354411408333335
mp-30408,MgAu3,-0.4066838686458331
mp-3041,Er2CdS4,-2.052531308214286
mp-30412,Pb3Au,-0.0625274137500002
mp-30413,TbPbAu,-0.6803600033333334
mp-30415,PrAu2,-0.7597791849999999
mp-30416,Rb4Sn2Au7,-0.3569112223076925
mp-30417,SmAu3,-0.6906230783333331
mp-30419,USnAu2,-0.2317247199999998
mp-3042,K2SiF6,-3.451352867571112
mp-30420,SrAu,-0.7793987625833338
mp-30421,Sr3Au2,-0.6687756273333331
mp-30422,Sr7Au3,-0.5345382531666665
mp-30424,Zn3Au,-0.1733982503125002
mp-30426,BaCdBi2,-0.5152411949999998
mp-30428,BaCu,-0.07352391
mp-30429,Ba8Ga7,-0.3711452511666664
mp-3043,Sr(Mo3S4)2,-1.2450375994444451
mp-30432,Ba(RhPb2)3,-0.2504342679999993
mp-30433,BaSn3Pt,-0.6915942600000008
mp-30434,BaTl2,-0.391631655
mp-30435,BaZn2,-0.1953274583333334
mp-30437,CaSnPd,-0.8150879008333334
mp-30438,Be2Cr,-0.2204484091666666
mp-30439,Ta6Be15Cu8,-0.1996391532758615
mp-30441,Be17Nb2,-0.1977996392105266
mp-30443,Be17Ru3,-0.277947219375001
mp-30445,ZrBe13,-0.1977969571428574
mp-30446,Ca9Cd4Bi9,-0.6620334250000003
mp-30447,Sr9Cd4Bi9,-0.7211990240909093
mp-3045,ErFe4B,-0.2505916655555562
mp-30452,DyNiBi,-0.6733276799999999
mp-30453,DyBiPt,-1.0295215933333337
mp-30454,ErBiPt,-1.020383686666667
mp-30455,HoBiPt,-1.0250974599999996
mp-30456,SrLiBi,-0.8283365794444446
mp-30457,LuNiBi,-0.6366513033333329
mp-30459,ScNiBi,-0.6269934783333332
mp-3046,Yb3Sn13Rh4,-0.5471879949999995
mp-30460,YNiBi,-0.6738431311111105
mp-30461,BiPd2Pb,-0.2961037900000001
mp-30463,BiPd3,-0.2649625843749996
mp-30464,Bi2Pd5,-0.2768659264285712
mp-30466,YbBiPd,-0.7737672688888887
mp-30467,Bi4Rh,-0.1501344981666666
mp-30469,TlBi2,-0.0194082799999997
mp-30471,CaCu,-0.1459694319999997
mp-30472,Ca2GaCu2,-0.2981001299999996
mp-30473,Ca3Ga5,-0.5175257199999996
mp-30474,Ca11Ga7,-0.3928939602777773
mp-30477,LiCaSn,-0.5685029394444447
mp-30478,Ca2Pb,-0.5550495966666666
mp-3048,U2SeN2,-1.6417644014207498
mp-30481,CaPt5,-0.5145270308333328
mp-30483,CaZn,-0.2490257474999999
mp-30490,Mg3Cd,-0.0894628449999999
mp-30491,MgCd3,-0.0831377020833334
mp-30492,Na2CdSn,-0.2166969174999999
mp-30493,ZnCdPt2,-0.4483882862499997
mp-30494,ScCd3,-0.2261116837499996
mp-30495,SmCd2,-0.3445447844444442
mp-30496,SrCd,-0.3326820783333333
mp-30497,TbCd2,-0.3284829066666666
mp-30498,TbCd3,-0.29107573375
mp-305,TiFe,-0.4211420949999986
mp-3050,Y3Al5O12,-3.6910040265
mp-30500,TiCd,-0.0603412874999991
mp-30501,Ti2Cd,-0.0754549499999998
mp-30502,TmCd3,-0.2607235920833335
mp-30506,CeHg2,-0.336501348333333
mp-3051,Mg2GeO4,-2.739785812023809
mp-30512,CeTlPd,-0.5820244083333329
mp-30513,La3Sn13Rh4,-0.6265426367499998
mp-30516,Th3Sn13Rh4,-0.5402017780000001
mp-30517,Sr3Sn13Rh4,-0.5317860017499996
mp-30519,Tl3PbCl5,-1.3898526106999998
mp-30520,Tl2S5,-0.6165742715178568
mp-30522,Nd5Ir3,-0.6240579700000009
mp-30523,Ta3As,-0.3216743440624992
mp-30527,TaS3,-1.296993666927084
mp-3053,DyAlNi,-0.6070698033333338
mp-30530,TlClO4,-0.8107321247100003
mp-30531,Ta2Se8I,-0.5270066562499994
mp-30532,Tl2ZnI4,-0.6559542257142853
mp-30533,KPt2S3,-1.0059760303958332
mp-30537,TbP5O14,-2.8343099813928574
mp-30539,Y2WO6,-3.2871546315740736
mp-3054,Li2CO3,-2.2560707270138884
mp-30540,V(NiP4)4,-0.3094174512925172
mp-30542,Ni4P16W,-0.2779881720068025
mp-30547,RbCr3O8,-1.9623657072916671
mp-30548,TlBF4,-2.950527043432222
mp-3055,NdB2Rh3,-0.6656128227777778
mp-30550,AlAu2,-0.313114038
mp-30551,GaFeCo2,-0.2389310724999997
mp-30555,TaGaCo2,-0.3600787250000001
mp-30557,YGa2Co3,-0.3659210530555559
mp-30559,LaCo13,-0.0344610724999999
mp-3056,NaTlO2,-1.435117154375
mp-30563,ZrCoSn,-0.4807273605555558
mp-30564,ThCo,-0.3570758525000004
mp-30565,Th7Co3,-0.2516473794999996
mp-30568,Zn13Co,-0.0573687507142859
mp-30569,Zr6Co23,-0.2247870587931039
mp-30571,Tl2Au,-0.0388215799999998
mp-30572,Hf2Ga,-0.3981153866666673
mp-30574,CsGa7,-0.1079223884913789
mp-30579,ErCu5,-0.1845738999999996
mp-30580,SrGaCu2,-0.2579923666666661
mp-30581,Hf2Cu,-0.1577877366666662
mp-30584,HoCu2,-0.277145873333333
mp-30585,HoCu5,-0.1982439633333334
mp-30586,HoInCu2,-0.3252375049999996
mp-30587,MgInCu4,-0.1102910438888885
mp-30589,LaCu4,-0.1589669794444445
mp-30590,LaCu6,-0.1290685678571428
mp-30591,Li2CuSn,-0.3340557558333334
mp-30593,ZnCu2Ni,-0.1223347337499998
mp-30595,CuSnRh2,-0.3648021224999995
mp-30598,SrCuSn2,-0.4324147991666667
mp-306,B2O3,-2.8072340834166662
mp-30600,TmCu5,-0.1889341672222221
mp-30603,ZrCu5,-0.1164530316666668
mp-30604,DyGa,-0.6287887925000004
mp-30606,DyInPd2,-0.8243567174999997
mp-30607,ErMg2,-0.0554067630555555
mp-30609,ErTlPd,-0.6533480755555559
mp-3061,TbNiC2,-0.3315059400000004
mp-30610,Er2Pt,-0.9749302533333328
mp-30611,ErSnPt2,-1.0136144487499994
mp-30612,Er7Rh3,-0.6556458325000001
mp-30613,ErSn2,-0.5713185583333331
mp-30614,ErZn12,-0.1728766361538461
mp-30618,DySnPd,-0.9264176983333332
mp-30619,Zr3Co,-0.2107123662500019
mp-3062,Sm4S3N2,-2.176477469718704
mp-30621,DySi2Rh3,-1.0330347899999996
mp-30622,Dy5Ru2,-0.3572832964285725
mp-30623,Dy5Sn3,-0.7266266781250001
mp-30624,Dy11Sn10,-0.7427729942857149
mp-30625,Dy2Tl,-0.2589364099999998
mp-30626,DyZn3,-0.3609040137500003
mp-30634,HoFe3,-0.0848002041666665
mp-30639,Th2Fe7,-0.0632421874999996
mp-30641,Y6Fe23,-0.042246337586207
mp-30644,Hf3Nb2Ga3,-0.4580218843749994
mp-30645,HoGa4Ni,-0.5343461033333335
mp-30650,Mg2Ga,-0.1390452866666665
mp-30651,MgGa2,-0.125741754444444
mp-30655,Ga4Ni3,-0.3957120628571431
mp-30656,TiGaNi,-0.549538090000001
mp-30657,TiGaNi2,-0.5409781850000002
mp-30659,YGa2Ni3,-0.5462453755555556
mp-30660,Ga5Pd,-0.2484319199999998
mp-30661,ScGaPd2,-0.8748760037499999
mp-30663,Ga3Pt5,-0.5549345450000001
mp-30665,Ga17Rh10,-0.6080512399074078
mp-30666,Sc3Ga2,-0.5730747109999996
mp-30667,Sr8Ga7,-0.3980679872222221
mp-30669,ThGa,-0.5277765412499997
mp-30671,Ti2Ga,-0.4029681016666657
mp-30672,Ti3Ga,-0.3217005337499996
mp-30673,Ti2Ga3,-0.4595729229999996
mp-30675,Ti5Ga4,-0.4393188099999992
mp-30676,Zr3Ti2Ga3,-0.509668245624999
mp-30677,Tm3Ga5,-0.6287764181249997
mp-30681,YGa6,-0.3105622633333326
mp-30682,ZrGa,-0.6264134099999996
mp-30683,ZrGa2,-0.5669757933333331
mp-30684,Zr3Ga2,-0.5437871090000016
mp-30685,ZrGa3,-0.4811667975000002
mp-30686,Zr2Ga3,-0.6148011130000001
mp-30692,GdTlPd,-0.6622636777777776
mp-30696,Cd5Cu2,0.0096586485714286
mp-30698,PrCu6,-0.12449665
mp-30699,SmCu6,-0.1444180797619049
mp-3070,Na2CO3,-2.084958916458333
mp-30703,Hf11Ga10,-0.4926873685714288
mp-30709,La2Zn17,-0.2733511460526315
mp-3071,Nd3Ni13B2,-0.3665777037037038
mp-30710,Pr2Zn17,-0.2687219523684208
mp-30711,Nd2Zn17,-0.2678569660526316
mp-30712,Sm2Zn17,-0.2631279979824563
mp-30713,Ho2Zn17,-0.2381206628947367
mp-30714,Tm2Zn17,-0.2235941516666667
mp-30715,Lu2Zn17,-0.2087520407894734
mp-30717,KHg2,-0.2808763993333332
mp-30718,K5Hg7,-0.2612922425
mp-30719,Mg2Hg,-0.1973123597222219
mp-30722,ScHg3,-0.2307776612499996
mp-30723,Th2Hg,-0.1374660016666666
mp-30724,ThHg3,-0.2371795050000003
mp-30726,YHg3,-0.3624556358333333
mp-30728,HoIn,-0.4350659099999996
mp-30729,Ho10In20Ni9,-0.4255200294871796
mp-3073,Sm2Te4O11,-2.296894287965686
mp-30730,Ho5Pb3,-0.5264604712500001
mp-30731,HoSnPd2,-0.887049835
mp-30732,HoTlPd,-0.6571644188888889
mp-30733,HoSnPt,-1.094815663333333