material_id,pretty_formula,formation_energy_per_atom
mp-1212679,Gd3W(ClO2)3,-3.0789626970984614
mp-1212680,Ga5Ir3,-0.4824994300000007
mp-1212691,Hf2InPd2,-0.6464133250000004
mp-1212705,GdAlRh,-0.9024327899999988
mp-1212709,GaNi10P3,-0.4608200342176866
mp-1212711,Gd2MgPtO6,-2.8961195545833336
mp-1212713,Fe3B7BrO13,-2.521581430190972
mp-1212732,K2CdGeO4,-1.9363273515312496
mp-1212738,Gd3SiBr3,-1.427845838214287
mp-1212754,Gd(ClO4)3,-1.0899104549862502
mp-1212758,Fe2Co3H4(Se3O10)2,-1.4199612333869294
mp-1212761,Gd(FeP3)4,-0.5988484542857134
mp-1212765,Pr25Ni49P33,-0.9492472755874496
mp-1212792,Dy4Ga12Pt,-0.629027187058823
mp-1212803,DyTeAs,-1.1772002700000002
mp-1212805,Er(ZnP)3,-0.6011743279591835
mp-1212806,DyNiAs,-1.0539178908333338
mp-1212811,DyPPd,-1.269156188690476
mp-1212812,Dy4C5,-0.3241035877777783
mp-1212816,KGd(SeO4)2,-2.0125660952239577
mp-1212821,Er4Ga12Pt,-0.6104244170588231
mp-1212823,Dy5(SiB4)2,-0.6729315467777781
mp-1212824,Er(Co2Ge)2,-0.3934793321428579
mp-1212826,Er(Al5Ru)2,-0.511357986538462
mp-1212827,DyAl3(BO3)4,-3.260706038416667
mp-1212828,Er3SbO7,-3.457618101704546
mp-1212829,Dy5(SiSb)2,-0.9177551027777776
mp-1212830,Dy7(TePd)2,-0.8381206690909092
mp-1212831,DySiRh,-1.0583149174999988
mp-1212833,Er4C7,-0.3014508086363631
mp-1212834,GdNiPb,-0.4096580024999999
mp-1212836,DySbIr,-0.8989395533333328
mp-1212840,Er4OsBr4,-1.287946065555555
mp-1212841,Dy3SbO7,-3.439014914431819
mp-1212845,Er(Al5Fe)2,-0.3517346276923075
mp-1212853,DyAl3Ni2,-0.6580854088888886
mp-1212854,Er2(Al3Pd)3,-0.6820633032142861
mp-1212858,Dy5SbPt2,-0.9907670106250012
mp-1212859,Er3Co2Si3,-0.7663931162499988
mp-1212861,Er2(Al3Rh)3,-0.8309308528571425
mp-1212862,GdIn2Cl5,-1.9364401289125
mp-1212863,Dy5BiPt2,-0.919104425625
mp-1212864,Dy5SbPd2,-0.7717669362499997
mp-1212868,DyCoB4,-0.5926101401388889
mp-1212872,Er3(Si3Pd10)2,-0.8346437724137922
mp-1212874,Er2(Ga3Ir)3,-0.6591468249999995
mp-1212876,Er2Si5Rh3,-0.9663667769999996
mp-1212878,Er2Be2SiO7,-3.600792495729168
mp-1212880,Er3Fe2Si3,-0.6858464393749992
mp-1212882,Dy5BiPd2,-0.6960824987500001
mp-1212883,Er12Co5Bi,-0.3051110519444443
mp-1212884,DyRhO3,-2.59825797975
mp-1212887,Er2(Ga3Ru)3,-0.5289306246428579
mp-1212889,DyF3,-4.4509001846425
mp-1212892,Dy4CdIr,-0.5282848474999996
mp-1212894,DySbRh,-1.0105623108333337
mp-1212895,Er12In3Fe2,-0.2164794888235293
mp-1212897,Er2Si3Pd,-0.8758017137499987
mp-12129,LuInPd2,-0.8587793374999997
mp-1212902,Dy4MgNi,-0.2007873318055555
mp-1212903,ErZnRh,-0.7601925958333329
mp-1212905,Er2B6Rh,-0.6618383130555551
mp-1212909,Er4CdIr,-0.5416513154166663
mp-1212911,Dy5(GeSb)2,-0.9708822266666672
mp-1212912,Dy5Ni2Bi,-0.4553458062500004
mp-1212913,Dy4MgCo,-0.1502227838888892
mp-1212914,H8RuN3Cl5O,-0.9286934853416674
mp-1212919,Dy4CdPt,-0.6075820370833332
mp-1212920,Er3(Al3Os)4,-0.5856273355263157
mp-1212922,Dy4CdNi,-0.298132085
mp-1212923,Dy4MgIr,-0.4319602226388888
mp-1212924,Er4CdNi,-0.3099475749999995
mp-1212925,Er3(Al3Ru)4,-0.6606839465789472
mp-1212930,ErTiClO3,-3.547490976168333
mp-1212931,DyTl(WO4)2,-2.503620830833332
mp-1212933,ErNiAs,-1.049045503333333
mp-1212934,ErZnGe,-0.6483653024999997
mp-1212935,GaPbF5,-2.85406243835
mp-1212939,Dy4CdPd,-0.4515971500000001
mp-1212943,Er4MgRh,-0.4123480638888879
mp-1212944,Er4CdPd,-0.463883997083333
mp-1212947,Er4MgNi,-0.2101548068055549
mp-1212948,ErZnSn,-0.5619888299999994
mp-1212949,Er4CdPt,-0.6207014391666661
mp-1212956,Er2AlGe3,-0.6169983704166663
mp-1212959,Er4MgCo,-0.1589509172222213
mp-1212960,Er2Sc3Si4,-0.828521856111111
mp-1212962,Er2Fe17C3,-0.0878512072727269
mp-1212966,Er2Si4CN6,-1.3961782991753835
mp-1212967,Er16In4Ir4O,-0.8347409616499999
mp-1212972,Dy3In5,-0.4509220350000005
mp-1212975,Dy4MgRu,-0.2460937372222217
mp-1212977,Er2Mo4O15,-2.597841693035713
mp-1212978,K7Nb14(P3O20)3,-2.934235816701587
mp-1212984,DyMnFeO5,-2.5982536471081463
mp-1212987,DyMg(BO2)5,-3.1087569801470587
mp-1212988,DyAg(WO4)2,-2.374396006111111
mp-1212997,DyCu5Sn,-0.2590627167857136
mp-1213005,ErSiNi,-0.8347530974999996
mp-1213006,Er2OsC2,-0.4089990810000003
mp-1213009,DyTl(MoO4)2,-2.4442699079166665
mp-1213010,ErSiRh2,-1.0454852954166671
mp-1213011,ErSbIr,-0.8893687624999996
mp-1213014,ErTl(WO4)2,-2.5043872525000004
mp-1213017,Gd3Sc2Al3O12,-3.801445508875
mp-1213022,ErRhO3,-2.611014515749999
mp-1213025,ErSbRh,-0.9951795508333336
mp-1213032,ErMnFeO5,-2.601274723983148
mp-1213036,ErGa3Os,-0.4834792666666667
mp-1213039,Dy(ZnP)3,-0.6065040593877546
mp-1213047,Er(Al5Re)2,-0.3493503660256414
mp-1213048,ErAsSe,-1.4101063049479166
mp-1213053,DyZnSn,-0.5949488475000001
mp-1213056,Dy(Al5Fe)2,-0.3559318692307694
mp-1213057,Dy2Be2SiO7,-3.594996663645835
mp-1213058,Er2Mn17C3,-0.0965831535971801
mp-1213062,Dy3B7Mo,-0.5877344030303017
mp-1213064,Dy7Co6Sn23,-0.4213700399999993
mp-1213066,ErNiPb,-0.3921502649999997
mp-1213067,Er2(Ga3Rh)3,-0.703644183214285
mp-1213068,CuTeSeI,-0.1418144330859374
mp-1213069,Fe3Pb5F19,-2.746242534726297
mp-1213071,Dy2(Al3Pd)3,-0.6919740871428571
mp-1213073,Dy2(Al3Ir)3,-0.8660718582142855
mp-1213075,CuPdF6,-1.6949472683924998
mp-1213076,CsLu(MoO4)2,-2.652449924827586
mp-1213077,CsTaCl6,-2.02043995531138
mp-1213080,CsNbCl6,-1.92504031031138
mp-1213081,CsMn2(PO3)6,-2.597188284929257
mp-1213083,Dy2(Al3Rh)3,-0.8367913017857143
mp-1213084,CsSrCl3,-2.65339771287554
mp-1213100,ErCoB4,-0.6150533305555553
mp-1213103,Dy12Co5Bi,-0.2779670808333334
mp-1213104,CsSrBr3,-2.03019991641954
mp-1213106,CuTeSCl,-0.6006368759712499
mp-1213109,Dy3(SbPd2)4,-0.8363603883333336
mp-1213111,Dy2Si3Pd,-0.8912407645833333
mp-1213112,ErAlGeO5,-3.2033541764062496
mp-1213113,Er5(GeSb)2,-0.9514934477777778
mp-1213114,CuAgGeSe3,-0.2114873550607642
mp-1213116,CuTeSeCl,-0.4450145920259372
mp-1213120,Dy2(MoO4)3,-2.726742376764705
mp-1213121,Dy2(Ga3Rh)3,-0.7152524164285714
mp-1213125,ErTl(MoO4)2,-2.44462595375
mp-1213129,Dy2Si3Rh,-0.9341513354166664
mp-1213133,CuTeSBr,-0.3818367070312503
mp-1213136,Dy2(Ga3Ir)3,-0.6721379617857143
mp-1213137,CsK2LaV2O8,-2.726843857780788
mp-1213138,Dy3Sc2Al3O12,-3.833511060625
mp-1213146,Dy(Al5Re)2,-0.3549968569230777
mp-1213147,CsSm(WO4)2,-2.635001602605364
mp-1213149,CsYb(WO4)2,-2.381636224966474
mp-1213150,CsNd(WO4)2,-2.6293715681609187
mp-1213152,Er3Ga2Ge3,-0.7085429418749998
mp-1213155,Er5Re2C7,-0.4032895100000004
mp-1213157,CsSc(WO4)2,-2.5938235977442523
mp-1213158,Er5(SiSb)2,-0.9057747088888892
mp-1213159,CsSc(SO4)2,-2.635010447431753
mp-1213160,CsYb(WO4)2,-2.376106458716474
mp-1213162,Er3NiGe2,-0.7986725725000005
mp-1213164,CsTlF4,-2.523022927531839
mp-1213167,Dy2OsC2,-0.3843443225000001
mp-1213169,Er5(In2Pt)2,-0.8161994559090909
mp-1213172,CsTm(MoO4)2,-2.6152910334386967
mp-1213173,CsLa(WO4)2,-2.65446352441092
mp-1213175,Er7(AgTe)2,-0.5689929042424243
mp-1213179,CsGa(SO4)2,-2.162721096181752
mp-1213184,CsSm(MoO4)2,-2.602266846355364
mp-1213187,Dy2Mo4O15,-2.595665960178571
mp-1213190,Dy2Sc3Si4,-0.8341659391666667
mp-1213191,CsHo(WO4)2,-2.6420662056609188
mp-1213193,CsEr(WO4)2,-2.643678291494252
mp-1213194,CuTeSeBr,-0.2278379337109375
mp-1213195,CsSbS(O2F)2,-2.3770657464928924
mp-1213198,CuAg2P2O7,-1.8502712060466275
mp-1213199,Dy3(Si3Pd10)2,-0.8354176406896546
mp-1213200,Dy3(Al3Os)4,-0.5909759736842098
mp-1213201,Er5SbPt2,-1.006215522499999
mp-1213202,Er5(ReO6)2,-3.388102106578948
mp-1213204,Dy3(P3Pd10)2,-0.7322762624630544
mp-1213205,Dy11(Mn2C3)6,-0.3408790972161483
mp-1213206,CsP7,-0.197546820053879
mp-1213207,Er5Ni2Sb,-0.548033812499999
mp-1213208,Er5BiPd2,-0.7046868112499993
mp-1213209,CsTm(WO4)2,-2.6439085076053623
mp-1213210,Dy2Au5F21,-2.256094104999643
mp-1213213,CsTm(WO4)2,-2.650958233438696
mp-1213214,Er3Al3Cr2O12,-3.4593008801250007
mp-1213219,Er5InNi2,-0.3703826512499999
mp-1213221,ErGeRh2,-0.8850610354166655
mp-1213222,CuAg2(PO3)4,-2.1032581903132823
mp-1213224,ErCu5Sn,-0.2545238807142854
mp-1213226,CsPO3,-2.686112153550493
mp-1213227,DySi3Ni5,-0.7164545069444451
mp-1213230,Dy2(MoO4)3,-2.726153790441176
mp-1213231,CsY(MoO4)2,-2.629402562605364
mp-1213232,CsPO3,-2.681251375550493
mp-1213237,HoZr6(PO4)9,-3.25115456206044
mp-1213239,CsGaAgF6,-2.532377129267152
mp-1213242,Dy6Al43V4,-0.3134678523584912
mp-1213249,Er5Ni2Bi,-0.4675290187499996
mp-1213250,Er5SbPd2,-0.7850578156250005
mp-1213252,CsY2Cl7,-2.6824102142417705
mp-1213254,CsGd(WO4)2,-2.62785446316092
mp-1213255,Er3Sc2Al3O12,-3.8392026755
mp-1213257,Dy6Nb4Al43,-0.3335696612264158
mp-1213258,Er6InCo2,-0.2858489133333337
mp-1213261,CsTb2Cl7,-2.692244781075104
mp-1213262,CsTm2Cl7,-2.67226876924177
mp-1213263,Dy(GaCo)6,-0.3332446261538455
mp-1213266,Gd12Co6Pb,-0.2487793005263175
mp-1213267,Dy2AlGe3,-0.6421419308333333
mp-1213268,CsLu2Cl7,-2.6518014998251034
mp-1213270,CsNd(MoO4)2,-2.595321639410919
mp-1213272,CsSm2Cl7,-2.68018325324177
mp-1213274,Dy6Ta4Al43,-0.3080439162264147
mp-1213283,Er7Co6Sn23,-0.4060665980555558
mp-1213285,Er5CuPb3,-0.4708940538888886
mp-1213286,Dy6Co2Sn,-0.3325914077777783
mp-1213290,Dy5CuPb3,-0.4905843316666668
mp-1213291,Dy6InCo2,-0.2619738294444447
mp-1213292,CsW3Br7,-0.7392458650391848
mp-1213293,CsTb(MoO4)2,-2.611377946910919
mp-1213298,DyIn2Pd,-0.6539946607499999
mp-1213300,CsTmP2O7,-3.1756112490597483
mp-1213306,CsSm(MoO4)2,-2.602714583855364
mp-1213316,CsNd(MoO4)2,-2.595234203577585
mp-1213317,Cu4AsClO6,-1.1418900077716654
mp-1213319,CsPr(WO4)2,-2.6259363285775863
mp-1213321,CsIn(MoO4)2,-2.134310000660919
mp-1213324,CsTb(WO4)2,-2.643189480244253
mp-1213325,Cu3B7ClO13,-2.307810095014305
mp-1213326,CsTm(NbBr3)6,-1.1415452215870916
mp-1213335,CsY(WO4)2,-2.635340985105364
mp-1213336,Er6Co2Sn,-0.3526211444444453
mp-1213337,Gd3ScS6,-2.4458265748750008
mp-1213346,CsTm(MoO4)2,-2.617111900105364
mp-1213347,CsHo(MoO4)2,-2.6198380173275857
mp-1213349,CsGd2Cl7,-2.6911339038251043
mp-1213351,CsFeBr4,-1.0124454409051722
mp-1213352,CsLu(NbBr3)6,-1.1386519628050396
mp-1213357,K3Sm2(NO3)9,-1.5622854417887
mp-1213358,Er6Ni20P13,-0.9174853010622712
mp-1213359,ErIn2Pd,-0.6436020910000003
mp-1213360,CsSrTa6Cl18,-1.901379161087603
mp-1213361,Fe2Te4BrClO10,-1.5063975744866671
mp-1213364,Gd2(Al3Rh)3,-0.8357428167857138
mp-1213367,CsHo2Cl7,-2.681850482325104
mp-1213369,CsTb(NbBr3)6,-1.1473503856896552
mp-1213372,Dy5CoBi2,-0.5516169871875007
mp-1213375,CsY(NbBr3)6,-1.146952702933245
mp-1213377,Ga(Ni3B2)4,-0.2893979587301578
mp-1213379,CsEr(WO4)2,-2.642746139410918
mp-1213380,CsLaZr6CCl18,-2.2936733996892973
mp-1213382,CsPr(NbBr3)6,-1.150663406074271
mp-1213386,CsLu3F10,-4.340725260523646
mp-1213387,Dy3C4,-0.3176421677142847
mp-1213389,CsLu(TaBr3)6,-1.1204753918435015
mp-1213392,CsGd(MoO4)2,-2.5955614994109184
mp-1213393,H9C6N11,-0.3654819891830768
mp-1213395,CsLa(TaBr3)6,-1.1503904949204242
mp-1213396,KGaGeO4,-2.2639783600714285
mp-1213398,CsMo3I3Cl4,-1.114894913951911
mp-1213401,CsGaO2,-2.1087762602640083
mp-1213403,CsLa(NbBr3)6,-1.1680956310742707
mp-1213412,Gd4Si2Ni2Bi,-0.778670885833334
mp-1213413,CsHo(MoO4)2,-2.6139113869109187
mp-1213416,Er6Ti4Al43,-0.3345072211320755
mp-1213418,CsHo(NbBr3)6,-1.1448051641511938
mp-1213419,Cu3BO5,-1.433365459675926
mp-1213422,CsKZr6BCl15,-2.183525482944349
mp-1213424,Er6Ta4Al43,-0.3015682069811327
mp-1213425,Dy4InIr,-0.5829195466666673
mp-1213427,Er6Al43V4,-0.3082055395283021
mp-1213434,CuP4(RuO7)2,-2.111130306751701
mp-1213435,Er6Nb4Al43,-0.3273314185849053
mp-1213445,CsEr2Cl7,-2.6783369895751035
mp-1213448,Gd2Sc3Ge4,-0.8673364080555565
mp-1213450,Gd3Lu2(GaO4)3,-3.403172760500001
mp-1213455,CsZr6CCl15,-2.194168428557872
mp-1213457,Dy3NiGe2,-0.7919445058333329
mp-1213459,FeSb(P2O7)2,-2.439451405589286
mp-1213460,Dy12Ni6Pb,-0.3757915336842105
mp-1213466,Er21(In2Rh5)2,-0.7258150774285704
mp-1213469,CsZr6MnCl14,-2.049490888328464
mp-1213476,Er3Ga15Ru4,-0.5097014753409087
mp-1213477,CsHf6CCl15,-2.1758546518187405
mp-1213480,Er6Ni20As13,-0.6817555523076919
mp-1213482,Dy2(SO4)3,-2.7905211917279407
mp-1213485,CuS2(NO4)2,-1.611909427000769
mp-1213489,Gd3(P3Pd10)2,-0.7211833017733982
mp-1213492,InH12S3(NO4)3,-1.4571495173372575
mp-1213498,CsSm(NbBr3)6,-1.146479533510168
mp-1213500,LaN2Cl5,-1.5425806470075
mp-1213518,CsSi2Mo3P6O25,-2.703585133800259
mp-1213520,CsNb3(PO5)3,-2.9164095102225143
mp-1213522,CsRbMo3P3O17,-2.442015552295812
mp-1213536,CsMo3Cl7,-1.515971070295549
mp-1213537,Nd25Ni49P33,-0.9649081863818424
mp-1213542,Na16Zn11Sn16,-0.1663789802325579
mp-1213559,K2Re3TeC3(SN)3,-0.6064395584176652
mp-1213567,DyZr6(PO4)9,-3.250870900233517
mp-1213572,CsW3Cl7,-1.3520146550682752
mp-1213578,KInH8(SO6)2,-1.7700135130504169
mp-1213579,Gd2Sc3Si4,-0.8110974511111111
mp-1213588,CsRbZr6BCl15,-2.1891711236526823
mp-1213598,Ho13(Mg2Zn27)2,-0.307133692018779
mp-1213599,CsNaNbOF5,-3.2884541151534483
mp-1213600,CsLa2Br7,-2.021510817293103
mp-1213603,GdIn2Cu9,-0.1296631962499995
mp-1213609,Dy8Ni18P11,-0.9839770667374508
mp-1213617,CsPr2Cl7,-2.678690140950104
mp-1213624,Ga2(MoO4)3,-2.10160845735294
mp-1213625,La23Cd4Ni7,-0.2471824761764706
mp-1213636,Er8Ni18P11,-0.9844577579536672
mp-1213641,GdZr6(PO4)9,-3.249247425233517
mp-1213645,CsSrCl3,-2.6438086808755403
mp-1213652,CsH2CN5,-0.4048532563412258
mp-1213658,CsPr6FeI10,-1.223742849885057
mp-1213669,Er25Ni49P33,-1.0304869278771702
mp-1213672,Dy3Ga15Ru4,-0.5188090382954545
mp-1213677,CsLa6FeI10,-1.2845384800239463
mp-1213680,CsDy2Cl7,-2.688036046075104
mp-1213681,CsDy(WO4)2,-2.6431396331609185
mp-1213682,CsEr(MoO4)2,-2.6434310373275856
mp-1213683,CsCuTeS3,-0.7989604666343387
mp-1213684,CsCr(SO4)2,-2.22207826284842
mp-1213686,CsCr(MoO4)2,-2.230694431910919
mp-1213687,CsCoPO4,-2.4095512166432096
mp-1213689,CsCe(PO3)4,-2.9151731281787088
mp-1213692,CsAg3Te2,-0.3992697638218392
mp-1213695,Cs4Rb2Fe2O5,-1.500943021382626
mp-1213697,CsBi(MoO4)2,-2.090332525244252
mp-1213698,Cs6Na4Tl13,-0.1413185485907045
mp-1213699,CsAlZnF6,-3.3467191419523368
mp-12137,Ca(ZnSi)2,-0.2937885129999998
mp-1213700,CsCaTa6Cl18,-1.8888205466004249
mp-1213701,Cs3PdF5,-2.519105458860345
mp-1213703,Cs3Ca2Cl7,-2.5721882555510924
mp-1213704,Cs3LiPb4,-0.2519515781824712
mp-1213705,Cs2NaGaP2,-0.4345628930008208
mp-1213706,Cs2Pb2O3,-1.5334087620874388
mp-1213712,Cs2Hg3(GeS4)2,-0.8861347427241374
mp-1213713,Cs2PrCl5,-2.5543260915202586
mp-1213716,Cs2LaNb2O7,-2.981854459967673
mp-1213720,Cs2Pr10Os2I17,-1.2506826203503896
mp-1213722,Cs2HoCl5,-2.565971649957759
mp-1213723,Cs3IO5,-1.5003127044492337
mp-1213724,Cs2LaCl5,-2.6080849958952586
mp-1213725,Cs3ReO5,-2.145697911115901
mp-1213727,Cs2(PSe2)3,-0.5095601225580779
mp-1213729,Cs2Pr10Ru2I17,-1.2606971442213573
mp-1213731,Cs2GdCl5,-2.561162914645259
mp-1213733,CrMoO4,-2.234312439166667
mp-1213734,Cs3Nb6SBr17,-1.1916202532191893
mp-1213735,Cs2La10Ru2I17,-1.3421947074471632
mp-1213736,Cs2LaBr5,-1.9563504863577588
mp-1213737,Cs2La10Os2I17,-1.3384769387374864
mp-1213739,Cs2Ca2(SO4)3,-2.651521654486161
mp-1213740,CrNiAg2F7,-2.181724645454242
mp-1213743,Cs2TmCl5,-2.567390258499425
mp-1213749,Cs2Pr10Co2I17,-1.2364556426084536
mp-1213754,Cr5Te8,-0.215193636153845
mp-1213760,CeMgRh,-0.5631300072222218
mp-1213761,CrNi2BO5,-1.968162679398148
mp-1213763,ClF5,-1.089376009035
mp-1213767,CeZr2F11,-4.142313169863572
mp-1213768,CeSi2Rh3,-1.0183446049999991
mp-1213783,Cs2YCl5,-2.5623494303744256
mp-1213791,CeGaIr,-0.8514153208333338
mp-1213792,CeAl4Pd,-0.5999782524999997
mp-1213797,Cs3ErCl6,-2.5207976408353105
mp-1213799,CeHf2F11,-4.243303324863571
mp-1213800,Ce3ZrSb5,-0.954460967222222
mp-1213801,Cs2Mn2(MoO4)3,-2.2039651545838104
mp-1213805,CrI3,-0.4387864024999999
mp-1213807,CeSiPd,-0.8792488208333337
mp-1213813,Cs2ZrMn(PO4)3,-2.8329442728785024
mp-1213815,Ce3TiSb5,-0.8952595266666665
mp-1213820,Cs2Mg2(MoO4)3,-2.4097138855278275
mp-1213824,Ce4Ge3,-0.6990316735714279
mp-1213830,Ce3W(ClO2)3,-3.125199882098461
mp-1213834,Cs3Sc2Br9,-1.828365493128079
mp-1213846,Cs2CeTa6(Br5O)3,-1.5552813868374835
mp-1213847,Ce(ZnP)3,-0.5880177758163262
mp-1213848,Ce4Ge7,-0.6710388690909089
mp-1213852,Ce2Si5Pd3,-0.8149144639999996
mp-1213853,Ce4(ErS2)11,-2.49750398402027
mp-1213858,Co3As2(HO)16,-1.4633179130518916
mp-1213865,Ce3Al11,-0.3550712846428574
mp-1213867,Ce2(CN2)3,-0.8863336585709088
mp-1213869,CaVSiO5,-3.1136956704687506
mp-1213870,Ce2CN3Cl,-1.5201714836285711
mp-1213875,Ce3Ni2Ge7,-0.6615363462500005
mp-1213877,Ce2(Ga3Ir)3,-0.6725532871428571
mp-1213881,Ce3HfSb5,-0.905108728333334
mp-1213884,CeTa7O19,-3.4247916149537017
mp-1213885,Ce2(Al3Ir)3,-0.8378937199999997
mp-1213889,Ce3Cu4(P2O)2,-1.5299057401373626
mp-1213891,Cs3PrCl6,-2.4986498988353096
mp-1213894,CaYBO4,-3.5333140809523806
mp-1213895,Ce3NbSb5,-0.8229383411111115
mp-1213898,Ce3PI3,-1.3025087526530617
mp-1213905,Cs3LaBr6,-1.9295652156293104
mp-1213907,Ce2(Ga3Rh)3,-0.7004955467857142
mp-1213909,CeTl2(PO3)5,-2.6764126889829183
mp-1213916,Ce2(Al3Rh)3,-0.7961271503571429
mp-1213926,Ce3(Al3Os)4,-0.5843076955263156
mp-1213927,Ce3PBr3,-1.5769197655102047
mp-1213931,CeMg(BO2)5,-3.1046189098529413
mp-1213936,Ce2Sn3,-0.6056795315000002
mp-1213948,CaZnPd,-0.6411758000000004
mp-1213950,CaAgAsO4,-2.0593037219047616
mp-1213956,CaUI6,-1.0958334612499998
mp-1213959,CaSbPd,-0.9368471058333327
mp-1213960,Ce2Ni3Ge5,-0.6518187270000005
mp-1213966,Cs3Li2Al(MoO4)4,-2.3761336204664016
mp-1213968,CaMgPO4F,-3.382421229761845
mp-1213974,CaBiAu4,-0.4186186158333331
mp-1213975,CaB4,-0.3921251866666658
mp-1213976,CaGaH5,-0.2868157982999995
mp-1213977,Ce3(GaRh)2,-0.7198003592857154
mp-1213979,Cd3Ga2(GeO4)3,-1.97327471025
mp-1213982,Cd(GaCl4)2,-1.549661784189091
mp-1213986,Ce5GeSb2,-0.7505841043749992
mp-1213987,CaCdP2O7,-2.7984980191720794
mp-1213990,Ce11(Ni2Ge3)2,-0.6046693059523806
mp-1213993,CaAs2F12,-2.807002929285333
mp-1213997,CaW6NCl18,-1.3783783861946153
mp-1214000,Cs2ErCl5,-2.5665734305827583
mp-1214002,Ce3(P3Pd10)2,-0.6788722564285714
mp-1214008,Ca4NdB3O10,-3.375181750416666
mp-1214012,Cs(Nb2Cl5)3,-1.7381977999695932
mp-1214014,Cs2NaUBr6,-1.5994517023362071
mp-1214015,CeTl(PO3)4,-2.7887233769047617
mp-1214016,Ca5Sn3,-0.6560244237500004
mp-1214020,Ca4YB3O10,-3.395294913379629
mp-1214026,Ca3La2Sb3O14,-2.84995748625
mp-1214035,Ce(Cu2P)2,-0.5177184779251705
mp-1214037,Ce3SiI3,-1.0576551417857143
mp-1214039,Ca3Pr2Sb3O14,-2.813207293977273
mp-1214040,Ca3Nd2Sb3O14,-2.820653424886365
mp-1214043,CaP2PdO7,-2.594259229626624
mp-1214045,Ca3Ge2Au9,-0.509167436428571
mp-1214046,Ca3Si4,-0.4733099233333333
mp-1214049,Ca3BCBr2N,-1.254303961651666
mp-1214050,Ca4ErB3O10,-3.403690225972221
mp-1214063,Ca5Rh,-0.2389061333333332
mp-1214064,CaIn2Rh,-0.5269440328124997
mp-1214066,Ca3Hf3AgF20,-3.9364162084123455
mp-1214072,Ce3Cr10N11,-0.9691659552574996
mp-1214073,Cs2MnH12(SeO7)2,-1.5210710161969274
mp-1214079,Ca6Cd32Cu,-0.1986722223076922
mp-1214080,Ca3SbI3,-1.4405521428571428
mp-1214081,Ca2ScTaO6,-3.63973935625
mp-1214085,Ce2Ni12P5,-0.7409973488345871
mp-1214087,Ca3AsI3,-1.5277122192857142
mp-1214093,Ca2Si5Pt3,-0.8242005009999993
mp-1214103,Ca2TaCrO6,-3.2460388812499987
mp-1214109,Ca2YbRuO6,-2.6615571144166665
mp-1214115,Ca2NbCrO6,-3.127648514249999
mp-1214121,Ca2NbFeO6,-2.9998726597499994
mp-1214123,Ca(Sb3Os)4,-0.114564317941176
mp-1214125,Ca2ScNbO6,-3.518530712249999
mp-1214126,Ca10VP5(O12F)2,-3.3789467001246942
mp-1214132,Ca4SiP4,-1.0437686875595236
mp-1214135,Ca2TaInO6,-3.12403933525
mp-1214139,Ce6Ni20P13,-0.89505876003663
mp-1214141,Ca3Sn13Pt4,-0.5150088347500003
mp-1214153,Ca2P3Pb3ClO12,-2.718790210189251
mp-1214159,Ca3Ga3(SnO6)2,-2.573240740249999
mp-1214168,Cs2CoBr4,-1.2288719976231524
mp-1214176,Ca2B5ClO9,-3.0486596122750966
mp-1214181,Ca2Nd3Si3O13,-3.52232148672619
mp-1214183,Ca6Al43W4,-0.2102427719811323
mp-1214210,Ca5V3O12,-3.0231693836249987
mp-1214215,Ca11AlSb9,-0.9804117807142856
mp-1214222,Ca3Al2(GeO4)3,-2.9458334140000004
mp-1214228,BaZr(SiO3)3,-3.4745417775892853
mp-1214229,Be15(Nb3Ni4)2,-0.3829993039655178
mp-1214241,Be15(Nb3Cu4)2,-0.1914895612068966
mp-1214242,Be3Ag4P3BrO12,-2.217695639523809
mp-1214247,Ca3In2(GeO4)3,-2.58666482475
mp-1214259,CdP14Pb,-0.0452642126562494
mp-1214263,Ca3Ti3Cr2O12,-3.289676069125
mp-1214269,Ca2Si3Pb3O11,-2.837274928881578
mp-1214272,Cd4As2Cl3,-0.812094975531111
mp-1214275,Ce(AlBr4)3,-1.3280298709375
mp-1214290,Cs3Pr(MoO4)3,-2.4765378465154257
mp-1214298,BaVCdF7,-3.3236815383330005
mp-1214303,Ca2AsH4F13,-2.7950330416225