material_id,pretty_formula,formation_energy_per_atom
mp-1698,SrSn,-0.6846957308333335
mp-16980,Rb2B4O7,-2.767897783429488
mp-16984,Sr3MgRhO6,-2.652716138712121
mp-16988,SrCu2SnS4,-1.1077280915624996
mp-16989,K5SnAs3,-0.4382775969444444
mp-1699,AlCr2,-0.1215072666666661
mp-16990,Ba10P6SO24,-3.273562787915941
mp-16991,RbMoAsO6,-1.9937303213888893
mp-16992,NaAg3S2,-0.5701796910416673
mp-16994,MnTe2O5,-1.691325696170647
mp-16995,Sm3Si6N11,-1.5175551813089996
mp-16996,Li3GaSiO5,-2.696137310875
mp-16998,Ba2Nb6Te2O21,-2.861731832782258
mp-170,HoCd,-0.3265580849999998
mp-17009,Ba3Te2O9,-2.397985737589285
mp-17012,Sr2VN3,-1.315497940912221
mp-17015,K4GeO4,-1.9696884988333327
mp-17017,Al12Co4Cu,-0.4147016347058822
mp-17019,Ca2YAs(WO6)2,-2.771243425462964
mp-1702,LaRh2,-0.7043343016666673
mp-17020,TiTl2(GeO3)3,-2.19086998775
mp-17021,TlCrP2O7,-2.502031927581169
mp-17024,Ba2NbN3,-1.17009514994
mp-17025,Sr3Y(BO3)3,-3.3409098005989577
mp-1703,YbZn,-0.3261149258333333
mp-17031,KAlP2O7,-2.9470291826266246
mp-17035,K3Sc(PO4)2,-2.961059645081633
mp-17036,Tb2Si3Rh,-0.9430651466666664
mp-17037,Rb2Ti(SiO3)3,-3.144598286749999
mp-1704,Tb2Tl,-0.26362624
mp-17040,Cs3MnF7,-2.916661066158025
mp-17042,Sc2P7Ru12,-0.7218958457142868
mp-17045,Hf3Rh5,-0.9314490025000008
mp-17048,Rb2WS4,-1.3743843871428578
mp-1705,Sb2O5,-1.7589192466071435
mp-17054,Cs3TaS4,-1.6358383382866384
mp-17056,LiZnPO4,-2.5521563045578235
mp-17059,K3Nb3Si2O13,-2.9934708609642864
mp-17060,NaAlSe2,-1.0327083967968749
mp-17062,Dy2Si2O7,-3.6722894562500006
mp-17063,BaLaCuTe3,-1.3067973016666663
mp-17065,Ho2SiO5,-3.8121354107812486
mp-17066,Y2TeO6,-3.015193258240741
mp-1707,BaN6,-0.5135634998971425
mp-17071,Rb2CrO4,-2.071575236071429
mp-17077,K2YF5,-3.772960867222917
mp-17085,Rb2Zr3OF12,-3.87970423697389
mp-17088,KBaPS4,-1.564954461653061
mp-1709,U2Ti,-0.0780153133333326
mp-17090,SrTlPS4,-1.3093215971768717
mp-17092,ScSnPd,-0.8582032849999995
mp-17093,ErSiPd,-1.0134398379166665
mp-17095,CsCuSe4,-0.4244196266343388
mp-171,VNi3,-0.2427673400000003
mp-17100,In2P2O7,-2.3891680903084422
mp-17101,CaNb2O6,-3.2484139988888887
mp-17102,Ba4Ir3O10,-2.1544911295588243
mp-17103,Sr3Ta6(Si2O13)2,-3.4266377195512834
mp-1711,Er3Ge4,-0.7715221857142852
mp-17112,K3Ge4Au,-0.2729670423749999
mp-17113,Sm2Ru2O7,-2.552354688219698
mp-17114,Nd2Sn2O7,-2.987632568522727
mp-17118,Y3Ge5,-0.7247672131250003
mp-17120,Cs6K3AlSb4,-0.4202958065418722
mp-17123,Si2Os,-0.4509284862499996
mp-17125,CsNa3Li12(GeO4)4,-2.2336394264703063
mp-17128,CsTb(PO3)4,-2.9366240167898194
mp-17129,Sr3(AlN2)2,-1.1743194860577768
mp-1713,CsCd13,-0.0587867709236453
mp-17133,Ba3(AlN2)2,-1.0446482555022218
mp-17137,Ba3ZnRu2O9,-2.21576077975
mp-17138,KMoPO6,-2.426981153785713
mp-1714,FeSi2,-0.4444947333333324
mp-17141,Er3(AlNi3)2,-0.5870043645454547
mp-17142,NaCrP2O7,-2.6646052889448057
mp-17143,BaGd2O4,-3.6143020750000017
mp-17146,K2S5,-1.0597665141607138
mp-17148,Na3GaSe3,-0.9709153388616072
mp-17149,Sr3ErRhO6,-2.955060432045454
mp-17153,Ba(TbTe2)2,-1.546802256785714
mp-17154,Rb3SbS4,-1.2192865043750003
mp-17155,La3AgSnSe7,-1.4018983249782984
mp-17159,Li2CrO4,-2.099007352380952
mp-17160,DyPtF7,-2.9451673714811104
mp-17161,K6CdO4,-1.358740212090909
mp-17164,NaNbGeO5,-2.5925157117187503
mp-17166,K2B4O7,-2.783118018314103
mp-17167,Be3Cd4Si3TeO12,-2.558000869565217
mp-17168,Er3Ni7B2,-0.5332138743055559
mp-17172,Tl2TeS3,-0.5431434203124995
mp-17173,Rh2S3,-0.8687905828749998
mp-17174,K3(Cu4S3)2,-0.7269889181029411
mp-17177,Nb2ZnO6,-2.7750015186111106
mp-17183,Na2BeSiO4,-2.8222037378125
mp-17185,Ca4Si3Pd4,-0.8143731436363634
mp-17186,Ca3AlAs3,-1.0666366846428568
mp-17187,K3Nd(PO4)2,-2.981327985438776
mp-17188,U(Al10V)2,-0.1842717643478266
mp-17189,K3Ce(PO4)2,-2.9511867322244894
mp-17190,Sc5Ge3,-0.8455103574999994
mp-17193,Ca3GeO,-1.7120032162500003
mp-17196,TiAs2O7,-2.202690778125002
mp-172,Nd5Ge4,-0.8029617355555558
mp-17201,Er2WO6,-3.3300731652777773
mp-17207,Tl4GeS4,-0.7098330886111116
mp-17208,K2Li14Zr3O14,-2.577733335055556
mp-17213,Cs4SnO4,-1.7582887590804597
mp-17216,Hf5Si4,-0.8044930374999998
mp-17217,Tl3GeTe3,-0.2574453999999996
mp-1722,Zn13Fe,-0.0311308639285715
mp-17220,Rb3TaS4,-1.6093387468750002
mp-17224,Cu(PO3)2,-2.225617270515872
mp-17228,K2Ni3S4,-1.0208722331666666
mp-17229,RbBe3ZnF9,-3.3324921713007147
mp-17230,Nb5GaSn2,-0.2452461837499999
mp-17235,Sm2Si2O7,-3.64743613503788
mp-17236,Ba(Ni2B)6,-0.3112946963157899
mp-17237,Gd3RuO7,-3.1400359098863646
mp-17240,RbNa3Li12(SiO4)4,-2.6331102642361106
mp-17242,Nb2(PO4)3,-2.8594112597479
mp-17243,Pr3CuSnSe7,-1.3160775080338538
mp-17244,Ba2ZnGe2S6O,-1.660178865833333
mp-17245,Na3TaF8,-3.3844778378766662
mp-1725,CaZn2,-0.3011485133333333
mp-17250,K3SbO3,-1.8311616778928577
mp-17252,BaCu2GeSe4,-0.7167545140885417
mp-17254,TlGaSe2,-0.581089422734375
mp-17256,Rb2Hf3OF12,-3.9847016541961113
mp-17260,Zn3SiNi2,-0.3324208491666667
mp-17264,BaVAsO6,-2.4648528791666666
mp-17268,Lu2Cu(B2O5)2,-3.046654938578431
mp-17269,Ba3NiSb2O9,-2.409317870250001
mp-1727,SrSi2,-0.3669612522222216
mp-17273,Ba(HoTe2)2,-1.5340822503571434
mp-17275,SrY2O4,-3.720234270119048
mp-1728,LuRh2,-0.785235231666667
mp-17281,Cu2PO4,-1.7408922022959177
mp-17282,SrTh2Se5,-1.845262158235677
mp-17283,K3NbSe4,-1.1197094963593752
mp-17287,TaTe4Ir,-0.3666013649999987
mp-17288,Li2ZnSiO4,-2.649603160416666
mp-17291,Na3SiTe3,-0.6784039721428569
mp-17297,Na2GeF6,-3.012656139311852
mp-17298,SrTi4(PO4)6,-3.1152322670884343
mp-173,MnAl6,-0.1737417428078822
mp-1730,BaGe,-0.545297975
mp-17304,Ba4Ru3O10,-2.288105875441177
mp-17306,KMo3(PO7)2,-2.351310180382144
mp-17307,K2Hg3(GeSe4)2,-0.5058110409833333
mp-17308,Tb2Si2O7,-3.667937414204546
mp-17313,Mg3BeAl8O16,-3.3705023371428573
mp-17315,Zr3Tl2OF12,-3.633761766140556
mp-17319,NdCo9Si4,-0.469256816785715
mp-17322,SrCu2SnS4,-1.1077435103125002
mp-17324,ZrSnS3,-1.4978757268750005
mp-17329,PrS2,-2.1773564541666666
mp-17334,Sc2Cr4Si5,-0.5479085136363632
mp-17335,ErAg(WO4)2,-2.375223339444444
mp-17337,RbAsOF4,-2.6076517112157136
mp-17339,Ba5Ho8Mn4O21,-3.300816930755544
mp-1734,CaZn5,-0.2291884416666668
mp-17344,RbEr2Cu3S5,-1.5426237389204551
mp-17349,Na3In2(PO4)3,-2.558742343035713
mp-17350,La2TeO6,-3.013869186666666
mp-17355,Sr3GdRhO6,-2.9077695143181823
mp-17357,NaSmSiO4,-3.3036815290476187
mp-17360,Ni2Te3O8,-1.3626625126923075
mp-17361,Cs2WS4,-1.4112354265517248
mp-17363,BaHo2O4,-3.707705324285714
mp-17364,Th(PRu)2,-1.0606525364285702
mp-17370,LaSn2Rh,-0.8010597749999997
mp-17371,K2ErF5,-3.79899603086875
mp-17375,K2Na3TlO4,-1.47276571835
mp-17377,KNb(PO4)2,-2.833348290011905
mp-1738,SmAs,-1.520421371666667
mp-17380,Ba2Ca(PdO2)3,-2.0280106947916665
mp-17381,Y3Ge4,-0.8083071964285712
mp-17382,Rb2Si3SnO9,-2.87618064675
mp-17383,Ni2Ge,-0.3052002083333332
mp-17385,Rb2Cr2O7,-1.94524579034091
mp-17387,LiVAsO5,-2.1873525969270826
mp-17388,Yb3Cu6Sn5,-0.3749996571428572
mp-17389,Pr3SiAgSe7,-1.3447831187282986
mp-1739,Hf5Ge3,-0.679982748125
mp-17391,Sm3Rh2,-0.680832577999999
mp-17392,Sr2ZnGe2O7,-2.6114827485069445
mp-17394,NaYGeO4,-2.874701743333333
mp-17395,TmCu(BO2)5,-2.829464974264706
mp-17396,SrNi5As3,-0.5152707512962967
mp-17399,Ba5Sb4,-1.0504096486111112
mp-17400,Ba2TaN3,-1.26600564869
mp-17401,Rb3Sn4Au,-0.3378152271874999
mp-17402,Yb11Sb10,-0.9413534896825396
mp-17407,Au3F8,-1.3080471849563635
mp-17410,CsEr3Se5,-1.832369186905532
mp-17412,BaPr2O4,-3.485625198571429
mp-17413,Ti3Rh5,-0.7921662731249999
mp-17418,SmSnF7,-3.588580941573704
mp-1742,GdRh,-0.7912993249999989
mp-17424,TmGa3Ru,-0.579553689333333
mp-17426,Er2WO6,-3.3222737791666668
mp-17427,AgMo3(PO7)2,-2.15642865989881
mp-1743,Mo5As4,-0.2853711199999998
mp-17434,K2SmF5,-3.7597894831604166
mp-17435,Zr4Fe4Si7,-0.7337769866666661
mp-17439,KSm(PO3)4,-2.928385892256614
mp-17441,Mg2GeS4,-1.3635023380952376
mp-17443,Cs2FeO4,-1.5197002144088674
mp-17445,RbBaMnO4,-2.220288071873596
mp-17446,PrPtF7,-2.931328438981111
mp-17447,Sr10P6SO24,-3.313542429298054
mp-17448,Ba3CaIr2O9,-2.389354136083333
mp-17449,Tc3P,-0.346114612767856
mp-17450,Cs3NiF7,-2.4545508633748274
mp-17455,K7Ta(SO4)6,-2.405113734203948
mp-17458,V2Zn2O7,-2.177303499886364
mp-17460,Lu5(Co2Si7)2,-0.6485870963043476
mp-17464,SrGeO3,-2.7539696074166664
mp-17465,Gd2Cu(SeO3)4,-2.118126863125
mp-17466,Hf5Sb3,-0.4602297134375011
mp-17468,SrZrSi2O7,-3.514593397083334
mp-1747,K2Te,-1.024018028666667
mp-17470,Ba3(SnAs2)2,-0.825247270555556
mp-17473,Na2Al2As3,-0.4978741264285712
mp-17477,AlFePO5,-2.8202343559151783
mp-1748,NdS,-2.355908511562501
mp-17481,Mg4Ta2O9,-3.2596233389722213
mp-17485,Ho2Si3Rh,-0.9366034745833324
mp-17486,Ho3CuSiS7,-1.8977174930729168
mp-17487,NaErGeO4,-2.9003051225000003
mp-1749,CaAl4,-0.1955805169999998
mp-17490,Rb5SiAs3,-0.389231790555555
mp-17491,Ba2LiGe3,-0.5672601298611107
mp-17493,Be3Cd4Si3SO12,-2.606610834701087
mp-17499,K7Nb(SO4)6,-2.3750149060460526
mp-17500,GdPtF7,-2.915579016203333
mp-17501,Ba(ScTe2)2,-1.4010221007142856
mp-17502,SrVPO6,-2.8833881825264545
mp-17504,Sr3(GeAs2)2,-0.7977203750000004
mp-17507,NaVAsO5,-2.17083800921875
mp-1751,ThSb,-0.9020596925
mp-17512,Zn(AuF4)2,-1.7203519108654548
mp-17516,Ca10P6SeO24,-3.2823898686285933
mp-17518,Sr2TaN3,-1.3320176421622218
mp-17522,K4Rb2Co2O5,-1.4490978202499998
mp-17523,NaCrF4,-3.0945459732933327
mp-17524,GeAs2,-0.0433162179166662
mp-1753,ThAs,-1.3961141150000005
mp-17534,Ho2Ge5Rh3,-0.7831848635
mp-17538,K3SbSe3,-0.9610556530044642
mp-17539,KAsOF4,-2.604452542358572
mp-17540,Sr2Co(SeO3)3,-2.0040077651076387
mp-17541,KSrVO4,-2.794045536380952
mp-17542,TlMoPO6,-2.1967818459523807
mp-17544,Ca(CoO2)2,-1.9628018925000004
mp-17546,Cs2RuO4,-1.7390992619088668
mp-1755,ZnAu3,-0.1478187349999999
mp-17551,SrNiP2O7,-2.698915331823593
mp-17557,Sr3ScNiO6,-2.8146225161363634
mp-17558,Ca5(GaAs3)2,-0.9498093307692306
mp-17559,Y2TiO5,-3.869296230677083
mp-1756,ThB6,-0.48873291
mp-17560,Na2UO4,-3.0313564932142856
mp-17562,Sr3Sc(BO3)3,-3.3385288100781256
mp-17564,Ca5Sb3,-0.9897795818749996
mp-17566,Ba5P4,-1.0096685229761906
mp-17567,Ce2(ZnGe2)3,-0.3917222172727273
mp-17568,Ag3Sn2(GeP2)3,-0.0452105722448981
mp-17569,SmPtF7,-2.939202989351481
mp-17577,Ca6MnN5,-1.0142844780462643
mp-17578,Yb4Ge6Ir7,-0.7391239939215682
mp-17586,CdS2O7,-1.9205227207500009
mp-17587,Ce2Zn2Ni5,-0.3604821366666668
mp-17588,AgRuF7,-1.820798619351481
mp-17591,Sm2MoO6,-3.1900989696296307
mp-17593,Ta5Ge3,-0.3647640424999991
mp-17597,Ca(ScS2)2,-2.3568283160714287
mp-17605,CsNd(PO3)4,-2.933671543456486
mp-1761,LuIr2,-0.8440265550000005
mp-17612,Ba2SiO4,-3.3709936732142856
mp-17617,K2Ti(Si2O5)3,-3.2007988999895822
mp-17619,Sc2Mn2O7,-2.8171620668163952
mp-1762,ErRh2,-0.7761475649999999
mp-17621,CsReO4,-2.3679758771551724
mp-17636,K3Na(WO4)2,-2.2411012195714286
mp-17637,USO6,-2.831018953515624
mp-17638,Rb3SbSe4,-0.8624756324218747
mp-17639,Y2Zn17,-0.2495837848245615
mp-17642,RbUCrO6,-2.784855068333332
mp-17646,Yb2WO6,-2.615385978425926
mp-17649,TlSnF7,-2.5016287442588894
mp-17650,KGaS2,-1.37865287325
mp-17651,HoPtF7,-2.943881021481112
mp-1766,TmS,-2.258045743229167
mp-17660,SrPrCuSe3,-1.5333444676996528
mp-17661,RbNd(PO3)4,-2.9267946595436505
mp-17664,LiNi2P3O10,-2.345252547492559
mp-17666,Nd3OsO7,-3.074345258068183
mp-17667,Sr3AlSb3,-0.8771378589285713
mp-17668,YbGa7Au3,-0.3700974396969692
mp-1767,Tm2O3,-4.1022199813333335
mp-17672,BaLi(B3O5)3,-2.951764697323716
mp-17673,Lu3O2F5,-4.421780082094999
mp-17676,Sr2SnS3F2,-2.538846232198542
mp-17677,Nb9PO25,-3.0259095651377543
mp-17678,Sr(ScS2)2,-2.383614967738095
mp-17679,RbNb(PO4)2,-2.834794586011905
mp-17684,La6Ni6P17,-0.9230376164039416
mp-17685,Li3GaGeO5,-2.360069627375
mp-17688,CsGaTe2,-0.7398554626077587
mp-17689,Ba4Ir3O10,-2.148963732794119
mp-1769,SbPd,-0.4432533775000005
mp-17693,SrCdP2O7,-2.8179860295508665
mp-17694,Ca5Al6O14,-3.450885480500001
mp-17695,Sc5Sn3,-0.6901462774999993
mp-17696,Ba2VN3,-1.229533773273333
mp-17697,KSmF4,-4.013063710598889
mp-17698,K6CdTe4,-0.971323233909091
mp-1770,Mg5Ga2,-0.1277609380952378
mp-17701,Sr2NbN3,-1.234451730495555
mp-17704,Tm2SiO5,-3.839129823177084
mp-17706,Zr5Ge3,-0.803747976875
mp-17707,Cs3Na2SnP3,-0.3843638621674874
mp-17708,Ge3Sb2O9,-1.990752002232142
mp-17709,Na2ZnSiO4,-2.4985636925
mp-1771,NO2,-0.8235127682933326
mp-17715,SrTa2O6,-3.5001345140740745
mp-17718,CsKNa2Li12(SiO4)4,-2.627045633359195
mp-17719,La3SiAgS7,-1.9928894133506947
mp-17720,Sr5Sn3,-0.6401184504166668
mp-17722,PrTaO4,-3.65987481
mp-17729,PrTl(MoO4)2,-2.4194682283333315
mp-1773,ReB2,-0.4278432488888886
mp-17730,K2SnO3,-1.9712806112083328
mp-17739,Sr5Sb3,-0.9874161635416664
mp-1774,ErB2,-0.6222107022222225
mp-17741,Sm2ReO5,-3.214847105677083
mp-17743,Sr3Sn2O7,-2.733310437812501
mp-17746,HfGePd,-0.8310104872222218
mp-17749,V2HgO6,-1.946403696388889
mp-1775,SnAu,-0.1929281899999999
mp-17750,Pr2SiTeO4,-3.2235556315625
mp-17751,Y5Ge3,-0.8355135464583334
mp-17753,Nd3RuO7,-3.0487326298863646
mp-17756,RbAg2SbS4,-0.7166111843749997
mp-17757,Sr5Ge3,-0.5546552072916664
mp-1776,UN2,-1.6116495915866669
mp-17760,ErGe2Pt,-0.8419404693750003
mp-17761,CaGeO3,-2.7614694127500004
mp-17765,Ta2ZnO6,-3.00425194861111
mp-17769,YSO4F,-3.090733317164048
mp-1777,Li15Ge4,-0.3286395765789473
mp-17770,CsPr(PO3)4,-2.932529084845376
mp-17771,NaMg4(AsO4)3,-2.429324651916666
mp-17774,K2Li3GaO4,-2.06250675485
mp-17777,Sr5As3O12F,-2.863505835691587
mp-1778,BeO,-3.103925443125
mp-17783,Mg3Au,-0.4177224916666666
mp-17784,CaTiGeO5,-3.0602578770312494
mp-17785,KNa2GaO3,-1.94461291525
mp-17786,Ba(SmTe2)2,-1.554267176309524
mp-17789,K2RuO4,-1.700689284071429
mp-1779,YbTe,-1.665576933333333
mp-17792,K2Hg3(GeS4)2,-0.8844513414
mp-17794,HoGe2Ir,-0.7945603906249996
mp-17799,KCdC3(NO)3,-1.0209468985354535
mp-1780,ScRh,-1.0434017774999995
mp-17803,Nb2Tl4S11,-0.9739939305514708
mp-17805,Ba2SnSe3F2,-2.259197341801406
mp-17807,LiUNbO6,-3.225376060185185
mp-17811,Cs3SbSe4,-0.8900476050835127
mp-17812,Sm2SiTeO4,-3.2254924658333337
mp-17813,ZrAu4,-0.4138110885000003
mp-17815,Ba4Si20Au3,-0.2861563116666666
mp-17816,Na5AsO5,-1.8935116169318176
mp-17817,Ca3(GeP2)2,-0.7955388349206353
mp-1782,ScSe,-1.5888868936718747
mp-17822,Dy2MoO6,-3.236869499444444
mp-17823,Tl3B3S10,-0.7754206528906247
mp-17825,Sr2SiO4,-3.422770791190476
mp-17827,Nd3SiAgSe7,-1.3363681337282989
mp-17829,Sr3SmRhO6,-2.891183260530303
mp-17830,Rb3Ge4Au,-0.2632415909374996
mp-17832,RbBaPO4,-3.036263010153061
mp-17833,Ba3GeO,-1.4439574047500003
mp-17834,La2SiSeO4,-3.4034383899804688
mp-17836,BaNd2BeO5,-3.4452235068055552
mp-17838,KTb3F10,-4.316583612135715
mp-17839,K3Na(SeO4)2,-1.8070675574062496
mp-1784,CsF,-2.8570467020605173
mp-17841,Mg4Nb2O9,-3.109972458305556
mp-1785,PrSb,-1.1852155800000004
mp-17850,K3NaTh2O6,-2.969080079708334
mp-17854,LiInGeO4,-2.1826227905952384
mp-17856,Al7CoCu2,-0.2782989985
mp-17857,Ta9VO25,-3.2721770534642847
mp-1786,Ti3Au,-0.3536614024999993
mp-17862,Ag3Ge5P6,-0.0305915101020407
mp-17864,BaNa(B3O5)3,-2.944051168413462
mp-17867,Mn2NbP12,-0.3797452628111661
mp-17868,NaAsO3,-1.90227861375
mp-17869,NaCuF3,-2.328648239214
mp-1787,NdMg3,-0.1274720975000001
mp-17870,KYb(WO4)2,-2.408307014972221
mp-17871,Ca(Al4Co)2,-0.4199929849999997
mp-17872,Ba(YTe2)2,-1.558913994880952
mp-17874,Sm2Cu(SeO3)4,-2.0157124597916667
mp-17875,Ca6GaN5,-0.960436725575
mp-17876,NaMnAsO4,-2.0359172454450243
mp-1788,As2O5,-1.571459858035715
mp-17880,Al13Ru4,-0.5366176623529412
mp-17881,SrFeP2O7,-2.867780038869048
mp-17885,Ba2Ge2Te5,-0.8537397519444446
mp-17886,K2Al2Sb3,-0.3633895167499997
mp-17888,K2Zr3OF12,-3.884593977862778
mp-17889,KNa2(PO3)3,-2.664219496664286
mp-17891,NaYSiO4,-3.3656346533333337
mp-17892,Ca2VN3,-1.380043743689999
mp-17894,Rb3Sm(PS4)2,-1.4467166369982998
mp-17895,K3BeF5,-3.2535950999944445
mp-17897,RbYP2O7,-3.147597896520564
mp-17899,Mn3V2O8,-2.289796115141961
mp-17901,MnSe2O5,-1.507860521131585
mp-17904,Nd2TiO5,-3.7937826932812486
mp-17905,Cs2Hg6S7,-0.7063988745158046
mp-17908,Ba2TiS4,-2.191501523214286
mp-1791,Al5Rh2,-0.7483828346428568
mp-17911,Ba2ZnO3,-2.541994663958333
mp-17912,Rb3SbSe3,-0.9530910627901784
mp-17913,Tb2SiSeO4,-3.358801151542968
mp-17914,CaGa4O7,-2.5155314886458338
mp-17918,Ba2SnS3F2,-2.5518520942818754
mp-17921,NbSeOF7,-2.7610205416923748
mp-17922,Ca2P2O7,-3.224632160535716
mp-17924,ZnP2PbO7,-2.445113649626624
mp-17926,Zr3Ni3Sb4,-0.6506057855000009
mp-17927,Ba(DyTe2)2,-1.5410177339285716
mp-17928,Ba(ErTe2)2,-1.5267730657142853
mp-17929,RbHo2Cu3S5,-1.5405003557386363
mp-1793,Zr3Te,-0.4999754937500009
mp-17941,Na2B4O7,-2.753695267083333
mp-17942,MgNi2P,-0.5649017811011907
mp-17944,NaCaAlF6,-3.855080222645185
mp-17945,RbPSe6,-0.341348974391741
mp-17947,BaCu2GeS4,-1.1394702011458342
mp-17951,Cs4Zn3F10,-2.824572927860243
mp-17953,MgNb2O6,-3.112076176481482
mp-17954,BaCu2SnS4,-1.1357773044791677
mp-17959,Nd2SiTeO4,-3.22098886875
mp-17960,BaSm2O4,-3.584038165952381
mp-17964,Na2Ge2Se5,-0.6087700351909725
mp-17965,KGaTe2,-0.6976704313749997
mp-17966,KInP2O7,-2.624365629217533
mp-17967,NaMnPO4,-2.5766269016695142
mp-17968,Na2CaV4O12,-2.538737424736841
mp-17972,Zn2Hg2OF6,-2.0576963303081817
mp-17973,Cs3GeF7,-3.0344139274657365
mp-17974,Na3Hg2,-0.2183992609999997
mp-17975,KSrPO4,-3.0708309204625843
mp-17978,Rb5GeP3,-0.3089248784126981
mp-17979,BaAl2(SiO4)2,-3.4619585711538465
mp-1798,CeMg3,-0.0171376187499996
mp-17980,K2MoS4,-1.3132665640714285
mp-17984,Ag8SnSe6,-0.1521410737152777
mp-17985,Ca5(GaSb3)2,-0.756559646923077
mp-17986,TiTl2O3,-2.265198077708334
mp-17988,U2Mn12P7,-0.6584927126600985
mp-17989,K3PS4,-1.3295306225089294
mp-17993,Ta2Mn4O9,-2.694372549247381
mp-17998,Ca(RhO2)2,-1.809778806071428
mp-1800,Nd2C3,-0.1673446554999998
mp-18002,KLi3GeO4,-2.244592982277778
mp-18003,CsCuS4,-0.8768924134051724
mp-18010,Ta2Pd3Se8,-0.6253681345192305
mp-18014,Th7Fe3,-0.1236454504999997
mp-18019,K3Sm(PO4)2,-2.986869567462585
mp-18022,P4Pb3O13,-2.455444840276786
mp-18024,Hf9BMo4,-0.1799867159523813
mp-18026,SrZn11,-0.1766530701388888
mp-18032,Nb5Ga4,-0.3480021827777777
mp-18036,Th(NiP)2,-1.0485430564285714
mp-18037,LiNbZnO4,-2.5885053930952373
mp-1804,Fe3N,-0.1645186718449984
mp-18040,KPrF4,-3.994946887543333
mp-18041,SmTl(WO4)2,-2.491264265694445
mp-18042,SrTb2O4,-3.7246602955952377
mp-18043,Sr6YSc(BO3)6,-3.3502704378385406
mp-18048,LiZnAsO4,-2.0095928719047618
mp-18049,Ge5P6O25,-2.4287095889632937
mp-18050,Li2MoO4,-2.34004067
mp-18051,La2TiO5,-3.86404401796875
mp-18055,La2Ge5Rh3,-0.8550239945000001
mp-18057,Nd2WO6,-3.238269145
mp-18062,Na10YbSn12,-0.280370702898551
mp-18063,SrSn3,-0.4223632029166668
mp-18065,BaCaAlF7,-4.123882245833
mp-18071,Ce3SiAgSe7,-1.284619454561632
mp-18073,K7TaAs4,-0.4621170896666668
mp-18079,BaLaCuS3,-2.0470844373958337
mp-1808,Ti2Ni,-0.2775997958333332
mp-18082,Sm3Ti3(SeO4)2,-3.3120525724804697
mp-18090,Ba3TaAs3O,-1.5457426729687498
mp-18099,BaSbF5,-3.395451592278572
mp-181,KGa3,-0.1766729340833333
mp-18100,Na6Ge2Se7,-0.8483303277604165
mp-18101,K2Cd3S4,-1.137793662055555
mp-18104,Na2Si2S5,-1.286875879791667
mp-18105,CsAgSe4,-0.4019830155232278
mp-18109,RbDy(SO4)2,-2.6757595809375
mp-18111,Ba2LaC3O9F,-2.86959986734
mp-18112,Sr2Ge2Se5,-1.0649985508391202
mp-18115,K2Sn2Hg3S8,-0.8778528374
mp-18124,KAlCuF6,-3.056605569737778
mp-18125,Ag(AuF4)2,-1.4064038288957574
mp-18127,Sr(Ni2Sn)2,-0.3213394238095241
mp-1813,Ba2Mg17,-0.0595782645614035
mp-18130,Nd2Si2O7,-3.613440074659091
mp-18132,K4SnSe4,-1.030617144875
mp-18133,Zr2Co4P3,-1.0199375903571437
mp-18134,Sr3YbRhO6,-2.7999742394696976
mp-18135,Zr4Co7Ge6,-0.6045758202941175
mp-18136,UTl4C3O11,-2.043682908092104
mp-18137,TaVO5,-2.8990228248214294
mp-18138,K2WSe4,-0.8149002332678569
mp-18139,Na5SiAs3,-0.4252650030555551
mp-1814,BaAg5,-0.1636752577777779
mp-18142,Ca(Al5Cr)2,-0.1777318136538458
mp-18147,LiGaSiO4,-2.794969692380953
mp-18148,K3TaS4,-1.60279580425
mp-18150,K3Lu(PO4)2,-3.015110434962585
mp-18151,Rb2Na4Co2O5,-1.4908738412499996
mp-18156,KBaPSe4,-1.0231592094209188
mp-18157,SiP2O7,-2.791608688839287
mp-18160,Cs2SrV4O12,-2.571077297764671
mp-18162,Li(CuO)2,-1.238314518833333
mp-18164,Tb3S3N,-2.3204130588221434
mp-18165,Na3GaS3,-1.3209194413392862
mp-18167,Ca3Cd2,-0.2986946259999998
mp-18168,TlZnPO4,-2.235592550510204
mp-18177,Ba3NbAs3O,-1.51960092421875
mp-18179,Cd4SiS6,-1.0057190762499997