material_id,pretty_formula,formation_energy_per_atom
mp-1214304,Ca3Tm2(GeO4)3,-3.1188579169583326
mp-1214306,Ca8In3,-0.3326249622727272
mp-1214310,Ca2Gd3Si3O13,-3.537206741011905
mp-1214313,Be3Tl2Zn2F12,-2.969065055225263
mp-1214315,Be3Tl2Cd2F12,-2.930579015751579
mp-1214320,BaTi(GeO3)3,-2.6518167872321428
mp-1214327,Ce2(Ga3Ru)3,-0.5391220753571427
mp-1214332,BaSrBi3,-0.7412718448333336
mp-1214336,BaSmCuBO5,-2.8618968525462947
mp-1214345,BaSi12Pt5,-0.4946906641666654
mp-1214348,BaLaAgTe3,-1.3352832155555554
mp-1214351,Cs3CeCl6,-2.4886626043353104
mp-1214373,Ce6Ni20As13,-0.685159256410256
mp-1214381,BaPrCuTe3,-1.2477722633333332
mp-1214384,Ca11GaSb9,-0.977743506428571
mp-1214389,BaPb3O4,-1.852044356875
mp-1214394,Ce3In4Ge,-0.5180264343749998
mp-1214395,BaInF5,-3.4558462426357144
mp-1214397,Bi8Te7,-0.1832478591111112
mp-1214399,Bi2(Pb2S3)3,-0.8291433981250006
mp-1214401,Ca2ZnAs2(H2O5)2,-2.095314601683158
mp-1214402,BaNdCuTe3,-1.2486307375000003
mp-1214404,BaNiP2O7,-2.716075809626623
mp-1214414,BaP2PdO7,-2.6209271034902604
mp-1214417,BaC6,-0.0853749142857154
mp-1214420,BaHfF6,-4.233660982767501
mp-1214423,Ca3Lu2(GeO4)3,-3.13186966525
mp-1214436,Ba8Dy3(Pt2O9)2,-2.6637619049242427
mp-1214441,BaTl(PO3)3,-2.731320546033164
mp-1214446,Ba8Lu3(Pt2O9)2,-2.7016371437121207
mp-1214448,Ba8Sc3(Pt2O9)2,-2.6741268523484854
mp-1214458,BaAlCdF7,-3.596781503333
mp-1214459,Ba8Ho3(Pt2O9)2,-2.6720813285606058
mp-1214461,Ba4Li(BiO4)3,-2.205772235083333
mp-1214465,BiP5O14,-2.4989039088928577
mp-1214475,Ba3Ta2ZnO9,-3.226506321083333
mp-1214478,Ba4Sm(CuO3)3,-2.360270017328431
mp-1214484,Ba3TmRu2O9,-2.662536266638889
mp-1214485,Ba3Ta2CoO9,-3.191673549083333
mp-1214487,Ba3ZnSb2O9,-2.5011233127500003
mp-1214488,Ba4As3,-1.0515352307142858
mp-1214491,BaIBr,-2.0422868125
mp-1214492,Ba5Tm2ZrAl2O13,-3.5142858536050734
mp-1214494,Ba5Y2ZrAl2O13,-3.4760194679528995
mp-1214495,Ba3TiO5,-3.271673144027777
mp-1214497,Ba5P3O12F,-3.394951643424013
mp-1214500,Cs2Re3Se4I3,-0.7978101167905898
mp-1214501,Ba4Ho(CuO3)3,-2.403958998897059
mp-1214502,Ba3Nb2CdO9,-3.0321523187499992
mp-1214503,Ba3ZrF10,-4.183338285492857
mp-1214505,Ba3Ta2MnO9,-3.2847381594576786
mp-1214507,Ba4Ga3Si20,-0.1883123294444441
mp-1214508,Ba5Ho2ZrAl2O13,-3.494096878967391
mp-1214509,Ba3ZrIr2O9,-2.587098032083333
mp-1214513,Ba6Tb2Al4O15,-3.417565126805556
mp-1214515,Ba6Tm2Al4O15,-3.439381201682098
mp-1214516,Ba3Nb2NiO9,-2.99649025825
mp-1214519,Ba6Y2Al4O15,-3.416077714830246
mp-1214520,BaNbI5O16,-1.4218254795652174
mp-1214521,Cs3La(MoO4)3,-2.4964287291470044
mp-1214524,Ba4Dy(CuO3)3,-2.398744825367648
mp-1214530,Ba6Lu2Al4O15,-3.444903655694444
mp-1214531,Ba5Cr3O12F,-2.7751723207709524
mp-1214534,Ba5Lu2ZrAl2O13,-3.525985403532609
mp-1214535,Ba3NdIr2O9,-2.49024715175
mp-1214536,Ba3HoRu2O9,-2.6489314074166668
mp-1214538,BaNaGaF6,-3.4456135377377777
mp-1214541,Ba6Dy2Al4O15,-3.4231953132870365
mp-1214542,Ba6Y2Ga4O15,-2.99825907242284
mp-1214543,CaP2H5NO7,-2.1483273721951788
mp-1214548,Ba3Tb(BO2)9,-3.1401180465322573
mp-1214551,Ba6Tb2Ga4O15,-3.0008927427314807
mp-1214552,Ba4Cu3Si20,-0.2153789572222222
mp-1214556,Ce3CoGe2,-0.6267802916666673
mp-1214558,Ba6Tm2Ga4O15,-3.023353750015432
mp-1214561,Ba2TbWO6,-3.14137412075
mp-1214562,Ba3PrIr2O9,-2.4769149074166665
mp-1214564,BaNaCrF6,-3.4853786844044445
mp-1214565,Ba5(Sn3Bi2)3,-0.4826398839999996
mp-1214566,Ba3CoO5,-2.476248163194444
mp-1214567,Ba3Sr2As3ClO12,-2.7564294400758733
mp-1214568,Ba4(Sn3Bi)3,-0.4787139334375001
mp-1214569,Ba3CaNb2O9,-3.31277048175
mp-1214573,Ba2PrBiO6,-2.757028613250001
mp-1214574,Ba6Lu2Ga4O15,-3.0259568184722214
mp-1214575,Ba5Mn3O12F,-2.587344813954073
mp-1214577,Ba2Sm(CuO2)4,-2.0523544502222224
mp-1214585,Ba2Pr(CuO2)3,-2.207839432708333
mp-1214592,Ba2Zn3F10,-3.2524600124600003
mp-1214596,Ba6Ho2Ga4O15,-3.0116145677314807
mp-1214597,BaCa2WN4,-1.225387675564999
mp-1214599,Ba2MoO3F4,-3.3171448428510004
mp-12146,CaB2F8,-3.5428585264715142
mp-1214601,Ba5Re3IO15,-2.7323461180729165
mp-1214605,Ba6Dy2Ga4O15,-3.007144524212962
mp-1214609,Ba3Tm(BO2)9,-3.147551881317204
mp-1214618,Ba3CdIr2O9,-2.0799340347500004
mp-1214622,Ba2SmTaO6,-3.528508829083333
mp-1214625,Ba2TmCl7,-2.8487530531153338
mp-1214626,Ba2TbCl7,-2.860518473782
mp-1214627,Ba2SrY2Cu2PtO10,-2.547673095324074
mp-1214631,Ba2MnCdFe2F14,-3.221951148363759
mp-1214632,Ba3SbI3,-1.5898593449999996
mp-1214633,Ba2LiTeO6,-2.391636112416667
mp-1214634,Ba3Dy(BO2)9,-3.141906809758064
mp-1214635,BaNaFeF6,-3.3513885938488883
mp-1214639,Ba3Ho(BO2)9,-3.143503263951613
mp-1214640,Ba3CeIr2O9,-2.5916028794166666
mp-1214641,BaRe2O9,-2.1565074213541657
mp-1214646,Ba2NaUO6,-3.08879413625
mp-1214648,Ba2Sr5B4S13,-1.821902049262152
mp-1214653,Ba3Gd(BO2)9,-3.133119511693548
mp-1214654,Ba2LaNb(CuO4)2,-2.7038643775
mp-1214658,Ba6Na2V2Sb2O17,-2.7340430167672416
mp-1214660,Ba4Nd(IrO4)3,-2.3807732082499995
mp-1214664,Ba6Na2Ta2V2O17,-3.0864096433189663
mp-1214667,As3Pb5O12F,-1.836154957437618
mp-1214668,Ba3Na3(CO3)5,-2.385661811490384
mp-1214676,Cd53Pd16,-0.2614427110869564
mp-1214677,Ba6Na2Nb2V2O17,-3.0127541984913795
mp-1214682,Ba6Gd2Al4O15,-3.4025590795833325
mp-1214684,Ba2HoCl7,-2.855065389282
mp-1214695,Ba2VCu2F12,-3.0571662708400007
mp-1214697,Ba2Yb2CuPtO8,-2.396948739523809
mp-1214705,Ba2MnAl2CuF14,-3.564907397863758
mp-1214710,BaAs2F12,-2.816259217785334
mp-1214717,Ba3Sr2Re3ClO15,-2.803402430014305
mp-1214718,Ba3Er(BO2)9,-3.145106241854837
mp-1214720,Ba2Gd(CuO2)4,-2.052161584666666
mp-1214725,Ba2CaFe2CoF14,-3.4019316865830005
mp-1214730,Ba2CaGa2CuF14,-3.400822372333
mp-1214739,Ba2CdGe2O7,-2.518963202395834
mp-1214746,Ba2DyCl7,-2.858056271782
mp-1214749,As3Pb5BrO12,-1.711524860238094
mp-1214750,Ba(InPt)2,-0.6652616520000002
mp-1214751,Cs3ScF6,-3.55822790609331
mp-1214755,BPd6,-0.2022668354761906
mp-1214761,Ba(As3Ru)4,-0.4224721217647063
mp-1214765,Ba(MgIn)2,-0.2999897533333335
mp-1214774,Ce23Cd4Ir7,-0.3831166410294115
mp-1214779,Ba2CaMnFe2F14,-3.482726105863759
mp-1214781,Ba4Nd(RuO4)3,-2.4831537332500004
mp-1214786,AsRuS,-0.7235545535416664
mp-1214789,BSe2,-0.133740381006944
mp-1214793,AsOsS,-0.5634314643750002
mp-1214794,AsRuSe,-0.4165460116145827
mp-1214796,Cs2SbF5,-2.938368702726508
mp-1214805,AsPb2S3I,-0.6952732870535715
mp-1214806,Ba6Na2Mn2Nb2O17,-2.750290139913115
mp-1214812,Cs3(Na13In24)2,-0.1442307724518587
mp-1214813,Ba2LuReO6,-3.092517625250001
mp-1214829,AlNiAg2F7,-2.479763873181516
mp-1214838,Al9Cr3Si,-0.1850679530769219
mp-1214839,Al3Bi(BO3)4,-2.9457095024166664
mp-1214841,Ba2B5BrO9,-2.984620042377451
mp-1214848,Ba3Dy(BO3)3,-3.310030837161459
mp-1214851,Al3Co3Si4,-0.4570021089999997
mp-1214853,AlInBr4,-1.0256914370833332
mp-1214863,Al3Si3Ag4IO12,-2.523102724492753
mp-1214866,Al7Cu2Ru,-0.3431922347499999
mp-1214877,AlNi2BO5,-2.2449141785648146
mp-1214880,Al2Te4O11,-2.0657529128676466
mp-1214885,Ba3Er(BO3)3,-3.317621601744792
mp-1214887,Al7Cu2Rh,-0.3825758895
mp-1214889,Al11Re4,-0.3415596746666665
mp-1214895,Ba6Na2Ta2Mn2O17,-2.824306976120012
mp-1214897,Al2(Ni7B2)3,-0.3480281562068973
mp-1214901,Al12Fe7,-0.2788576194736841
mp-1214910,Al2CdBr8,-1.0660445122727276
mp-1214915,Al3(V3C2)4,-0.5408607702173912
mp-1214916,Ba3InIr2O9,-2.155631874750001
mp-1214921,AsSe(BrF2)3,-1.6700161631348862
mp-1214922,AgPtF6,-1.6272848250591667
mp-1214934,AgRhF6,-1.7179569538091664
mp-1214942,Ba4Ce(RuO4)3,-2.556794249333333
mp-1214948,AlPbF5,-3.383943775135714
mp-1214951,AlZn10(B4Rh9)2,-0.4693818596396389
mp-1214959,Al(Ag3Se2)3,-0.2139339974414063
mp-1214960,AlH5(SeO4)2,-1.6557257282992186
mp-1214962,BaLu2F8,-4.449421098592727
mp-1214964,Ca21(Cd2Bi9)2,-0.778272919767442
mp-1214967,Al2Cd3(GeO4)3,-2.271104037
mp-1214980,Al11(CoSi)6,-0.429612279021739
mp-1214986,Ag3Mo3AsO13,-1.5933938220624988
mp-1214988,AgMo6Cl13,-1.2706998127856657
mp-1214991,Cs2ZnSi5O12,-3.009313299293104
mp-1214995,Cs2Mo3P3O17,-2.4437748664130536
mp-1214997,C6N7Cl3,-0.1783958712879171
mp-1214998,CoH40C10Br2(N2O)10,-0.7882071212036148
mp-1215,Ti2O,-2.040922547083333
mp-1215003,BaBi12Mo5O34,-1.950421113509616
mp-1215016,Ag5Te2Br,-0.1450227458333333
mp-1215019,Ca10Al2Cu19,-0.1508845466666671
mp-1215020,Al2(Zn13Pd3)3,-0.3027532801999999
mp-1215056,BaMn5(SO4)6,-2.2807196406062737
mp-1215058,BaNa2(Ge4O9)2,-2.2475871435919546
mp-1215093,Cs2TeH6SeO10,-1.5550518232462909
mp-1215117,Ce3(Sn3Pd2)2,-0.7261542590384621
mp-1215118,Ag16HgAs4S15,-0.3675086395196756
mp-1215134,AlP2H12N3O8,-1.6495975302008798
mp-1215138,Cd3Fe2(GeO4)3,-1.8849763938749995
mp-1215155,Ba21(Cd2Bi9)2,-0.8599378787790698
mp-1215168,ZrVMo,-0.1153584866666671
mp-1215169,ZrVW,-0.0852868916666669
mp-1215170,ZrVCr,-0.0185966900000001
mp-1215176,ZrUS2,-1.7435855790624988
mp-1215186,ZrTiCo4,-0.3068016183333337
mp-1215192,ZrTiCuS4,-1.600801563928571
mp-1215195,ZrUC2,-0.4915851199999999
mp-1215204,ZrTi2O,-1.6004189753124989
mp-1215207,ZrScFe4,-0.2930245108333338
mp-1215208,ZrTi3As2,-0.8938833333333337
mp-1215209,ZrTaB4,-0.836374575555554
mp-1215211,ZrNbB4,-0.8472380872222219
mp-1215213,ZrTaCr4,-0.069948091666666
mp-1215217,ZrNbCr4,-0.0378629199999996
mp-1215219,ZrTaC2,-0.7390315649999994
mp-1215220,ZrMoW,-0.1376380949999998
mp-1215222,ZrNbC2,-0.6609944700000003
mp-1215224,ZrNbFe4,-0.1873466299999992
mp-1215245,ZrTi(NiH3)2,-0.4573530851720001
mp-1215258,ZrBeB,-0.5830494444444435
mp-1215289,ZrTa(SiRu)2,-0.7868187650000004
mp-1215296,ZrMnCr,-0.1045479048850571
mp-1215316,ZrMn6GaSn5,-0.1424675644562333
mp-1215318,ZrAlCu,-0.3986531650000001
mp-1215319,ZrAlFe4,-0.288000361666666
mp-1215329,ZrAl2Zn,-0.4774339262499998
mp-1215342,Zr6P2O,-1.3837921853769868
mp-1215344,Zr8AgPd3,-0.3906650636111107
mp-1215353,Zr4GeSb7,-0.5625930520833329
mp-1215367,Zr5(Te2P)2,-1.0937874615584413
mp-1215368,Zr4FeCo,-0.198518692500001
mp-1215370,Zr4CuS8,-1.8137240788461544
mp-1215374,Zr4Sc5N10,-1.9183283694105275
mp-1215377,Zr4O,-1.243302897583333
mp-1215378,Zr4Ni3As8,-0.7596731033333337
mp-1215379,Zr4CoNi,-0.2862832825
mp-1215380,Zr6Al7Cu16H3,-0.3700278389331251
mp-1215386,Zr3Ti2Si3,-0.8495508818749995
mp-1215387,Zr4CN3,-1.6352013908924992
mp-1215388,Zr6Pb(OF11)2,-3.885716992699356
mp-1215389,Zr4C3N,-1.1052455690475007
mp-1215390,Zr4Br4O,-1.52361054125
mp-1215396,Zr4(B5Ir4)3,-0.541090690806452
mp-1215411,ZnIn2SnAs4,-0.206832505625
mp-1215412,Zr2(ZnGa)3,-0.4736687006250002
mp-1215417,ZnCu2Ge(SeS)2,-0.5682372176171873
mp-1215418,ZnIn3AsSe4,-0.5091039149305558
mp-1215420,Zr3TaFe8,-0.2463004275000007
mp-1215429,ZnSnP2,-0.1916532805357143
mp-1215432,YbTmSe2,-1.877204333671876
mp-1215434,ZnSnAs2,-0.1889603487500002
mp-1215438,Zn2CuNi,-0.1640032274999998
mp-1215442,Zr2Al3Zn,-0.5160437008333331
mp-1215448,Zn2PdAu,-0.3904664850000001
mp-1215449,YbZnIn,-0.3994402805555556
mp-1215452,ZnSnSb2,-0.0602277912499999
mp-1215456,YbErSe2,-1.891023110338541
mp-1215459,YbAl3Au,-0.514049605333333
mp-1215465,Zr2SiTe2As,-0.8447592091666666
mp-1215471,Zr2HC,-0.7267456546550015
mp-1215472,YbTmS2,-2.4271267215625008
mp-1215478,Zr2VCo3,-0.3283587458333332
mp-1215479,Zr2V3Fe,-0.1338176433333326
mp-1215480,Zr3NbC4,-0.7276086487499995
mp-1215481,YbSmB12,-0.4683217221428565
mp-1215494,YbZnCuP2,-0.622460839761905
mp-1215495,YbZnCuSi2,-0.4273576683333339
mp-1215496,ZnCdAg2,-0.058595005416667
mp-1215506,Zr2CrCo3,-0.244954905833333
mp-1215512,Yb4SmS5,-2.5326917665625004
mp-1215514,YbMnCuP2,-0.6591214266929398
mp-1215516,Yb4SmS5,-2.5255370385625
mp-1215517,Zr2MnFe3,-0.2561301349425283
mp-1215523,YbSm3S4,-2.4146962236458327
mp-1215524,ZnCdAu2,-0.20530107125
mp-1215535,YbGa3Cu,-0.4099278553333327
mp-1215542,Zn2GaCuSe4,-0.592493943671875
mp-1215544,ZnCr4CdSe8,-0.5739123666964281
mp-1215547,Zn3Cr8FeS16,-1.0878191508928572
mp-1215551,YbZnGa,-0.4957839855555554
mp-1215552,Zr2AlFe3,-0.3727313233333333
mp-1215553,YbAlCu5,-0.2794032909523807
mp-1215554,Zr2FeCo3,-0.3057379041666657
mp-1215558,ZnAg2GeS4,-0.7136196205208329
mp-1215563,YbCu2Ni3,-0.2563471611111119
mp-1215565,Zn2GaCuTe4,-0.3735193875000004
mp-1215570,Zr3(Sn2Sb)2,-0.4772779144444452
mp-1215571,YbZnGe,-0.5536018822222223
mp-1215572,YbSc(BO3)2,-3.2057468165833343
mp-1215573,Zr2CoS4,-1.6684746796428576
mp-1215577,Zr2NiS4,-1.719915146071429
mp-1215592,Zr2CN,-1.3873947180950008
mp-1215593,ZnGeAsP,-0.1803421333928576
mp-1215594,YbGd3F12,-4.169659586309167
mp-1215598,Zr2Se3,-1.3557075174062496
mp-1215600,Zr2CoNi,-0.4017024887499998
mp-1215613,Yb7MgPt4,-0.9372176825
mp-1215615,ZnCd(GaS2)4,-1.0819513385714283
mp-1215619,ZnCr4CuSe8,-0.5343276552678569
mp-1215623,ZnFe4CoO8,-1.82061374
mp-1215627,Zr2VRe3,-0.3795504408333331
mp-1215629,Zn3PBr3,-0.6688541762244901
mp-1215634,Zr2Te3,-0.9011426100000002
mp-1215637,YbGaCu4,-0.2808688544444446
mp-1215639,Zr2Ga3Cu,-0.5246038599999991
mp-1215642,Zn2SiGeN4,-0.6741493811899995
mp-1215646,YbSn2BiO7,-2.246795198674244
mp-1215657,Zn9Ga3Mo2,-0.1179326389285709
mp-1215664,YbCdAg,-0.3517413183333335
mp-1215669,Zr3TePb4O13,-2.53009852029762
mp-1215672,YbAl7Cu5,-0.3071114835897438
mp-1215675,Zn4CoO5,-1.713589605125
mp-1215676,YZnSi,-0.6469298277777776
mp-1215681,YUAs2,-1.1345730283333326
mp-1215693,YbGd(PO4)2,-3.2349193119841275
mp-1215696,Zn2InCuS4,-0.9715042390625004
mp-1215697,ZnCr4CoO8,-2.2335863035714283
mp-1215704,Zr3Mn8Al,-0.2042326564367833
mp-1215705,YZnCuP2,-0.7741128690952379
mp-1215709,YZrFe4,-0.1604074422222225
mp-1215710,Yb4Pt3Au,-1.0511301833333335
mp-1215714,Zn2Pd,-0.4388433154166667
mp-1215720,Zr3AlFe8,-0.2927410983333326
mp-1215724,ZnAg,-0.0438436502777778
mp-1215727,ZnCu4Sn2HgS8,-0.6992662462500001
mp-1215728,YV2BiO8,-2.675354119444445
mp-1215732,ZnCoTe3O8,-1.5731896605769238
mp-1215734,Zr5Co19P12,-0.8866323818849209
mp-1215741,Zn2Cr3FeO8,-2.190988975
mp-1215743,ZnGaFeO4,-2.032601266071429
mp-1215745,Zn3Fe8CoO16,-1.853928491785714
mp-1215746,ZnCdCu4(SnS4)2,-0.7621260481250007
mp-1215752,Zn6B5Ir11,-0.2731981191666661
mp-1215756,Zr3BiF15,-3.7716802977815793
mp-1215763,Zn3P6N12Cl,-0.6472691158294789
mp-1215765,YUS2,-2.002257777395833
mp-1215766,Zn2Ag2(MoO4)3,-1.7353835066666663
mp-1215771,YbZr3F15,-3.9081445394482457
mp-1215777,Zn2CrFe3O8,-1.9844333271428576
mp-1215779,Zn10Pd3,-0.3366577438461539
mp-1215781,Yb4Ge3Au5,-0.8201868672222226
mp-1215782,ZnGa2(TeO3)4,-1.76539353
mp-1215792,ZnCu2SnSeS3,-0.6863309270898439
mp-1215798,ZnCd4(GaS2)10,-1.0721070899285714
mp-1215803,YZr3F15,-4.133123126114913
mp-1215804,Zn(InAu4)3,-0.1204919978125
mp-1215808,Yb(AlCu)6,-0.3139739166666669
mp-1215816,Zn2InCuSe4,-0.5677837111718751
mp-1215817,Zr2GaCo3,-0.4271137241666665
mp-1215818,ZnNiTe3O8,-1.5100322703846154
mp-1215820,YUCo10,-0.1371526544444445
mp-1215824,ZnCr8Cu3Se16,-0.5081763529464283
mp-1215826,Zr2Sb2Pb4O13,-2.3587970598214283
mp-1215828,Zn8B4H3O15F,-2.1366077794881715
mp-1215832,YUTe6,-0.7297258216666664
mp-1215833,Yb5P12Ir19,-0.785503685171958
mp-1215836,Yb2AgPd,-0.6475593316666668
mp-1215838,Zn15B6Rh17,-0.4401710811842104
mp-1215840,Yb3DySb3,-1.0633383028571426
mp-1215842,ZnFe8Co3O16,-1.787844944642856
mp-1215853,Yb(TmSe2)2,-1.922578816101191
mp-1215860,Yb(LuSe2)2,-1.9122393665773807
mp-1215863,Yb(ErSe2)2,-1.9259605408630944
mp-1215869,Yb2CdPd3,-0.7424739955555554
mp-1215874,Zr3(V2Fe)2,-0.1513536605555556
mp-1215876,Yb6P19Rh30,-0.9528295453246756
mp-1215879,Zn4Cu11(SnSe4)5,-0.369043736171875
mp-1215882,Yb2FeSbO7,-2.44239050155303
mp-1215883,YbPr3Co34,-0.0343982645175434
mp-1215887,YU(CuSi)4,-0.4336476043333334
mp-1215897,Zn53Co7,-0.0898827378333334
mp-1215901,YErAl4,-0.5181843605555555
mp-1215905,YCuGe,-0.6539553511111116
mp-1215908,YHoCo4,-0.17337727388889
mp-1215912,Yb2P7Rh12,-0.9218448282539682
mp-1215915,YScS2,-2.249187048645834
mp-1215917,Zr4NiMo,-0.1916499591666666
mp-1215926,Zr2P2SO12,-3.024780901486344
mp-1215927,YEr(SnPd2)2,-0.8864096391666667
mp-1215939,YCuSi2Ni,-0.7201603746666663
mp-1215941,YSc(BO3)2,-3.4856897472500004
mp-1215942,YScFe4,-0.1505396563888889
mp-1215945,YGa3Cu,-0.4658750506666663
mp-1215946,YU2O6,-3.8801193489814825
mp-1215969,Yb20(CdAu3)3,-0.6992967416666667
mp-1215975,YSn2BiO7,-2.484566106553031
mp-1215977,YMg(CoNi)2,-0.2417256161111112
mp-1215979,YGaAu,-0.8052034461111113
mp-1215981,YErNi2,-0.4556503670833329
mp-1215983,YThCo10,-0.1237322836111118
mp-1215984,YTm3(SnPd2)4,-0.8871324502083331
mp-1215988,YGaAg,-0.5005257838888889
mp-1215992,YErAl6,-0.4258791491666667
mp-1215993,YBi3(Ru2O7)2,-1.8164109959469708
mp-1216,YbO,-3.636993463958333
mp-12160,Li6Ho(BO3)3,-2.843665014013157
mp-1216012,YThRe4,-0.147604635555556
mp-1216017,YAl7Cu5,-0.3449185794871786
mp-1216020,Zn35Cu17,-0.1014189399038459
mp-1216022,YErAl6(BO3)8,-3.2582416182500005
mp-1216029,YCrFe11,-0.0150981779487175
mp-1216047,Y2AsS,-1.9683560599479168
mp-1216052,Y3SiS2,-1.8748058685416664
mp-1216053,YEr3V4O16,-3.2144962972222224
mp-1216054,Y3GeS2,-1.862589494375
mp-1216056,Y2PS,-2.046494157090774
mp-1216057,Y2NiRu3,-0.3484969194444443
mp-1216058,Y2TeS2,-2.1298238845833337
mp-1216061,Yb2SnS5,-1.6588468514322918
mp-1216066,Y2CoRu3,-0.2787928786111114
mp-1216071,Zn2Cu10Sn5Hg3S20,-0.6852311955624998
mp-1216072,Y2Ga3Ag,-0.5865817199999999
mp-1216076,Zn5Cr20(GaSe10)4,-0.5674271651992758
mp-1216081,Y2Ga3Cu,-0.6093404844444438
mp-1216090,Y6Mn(SiS7)2,-1.9871321623219644
mp-1216092,YMn2SiGe,-0.5628406515287352
mp-1216093,Y4TiSn3O14,-3.20496417503788
mp-1216096,Y6Mg(SiS7)2,-2.057959017699276
mp-1216099,Y3Sn4BiO14,-2.755703974886364
mp-1216100,Y2BeAlBO7,-3.555540071979168
mp-1216105,YGa3NiGe,-0.5206427288888887
mp-1216106,Y3SOF5,-4.0618916350325005
mp-1216111,YEr2Al9,-0.4228581011111115
mp-1216112,Y5Sc5Si6,-0.7400809294791664
mp-1216115,Y6Mg(GeS7)2,-1.963954720307972
mp-1216122,Y4Zr3O12,-3.9256426246491234
mp-1216123,Y2Al3Fe,-0.4089992594444449
mp-1216128,Y3Ga7Cu4,-0.4813981735714284
mp-1216129,Y2Mn3Sb3O14,-2.483713350273282
mp-1216130,Y2VFeO6,-3.1136175979166665
mp-1216134,Y2P7Rh12,-0.9364990612698408
mp-1216138,Y3CBr3,-1.3086758657142863
mp-1216139,Y4C4I3Br,-0.9110716940277778
mp-1216147,Yb2ZnSb2,-0.8037482805555556
mp-1216151,Zn3Fe9(PO4)8,-2.3950271810302186
mp-1216153,Y2CrFeO6,-3.082024938416666
mp-1216156,Y2(CuNi)5,-0.2677257563888891
mp-1216157,Y6Al2SiS14,-2.075899935597826
mp-1216160,Y4Zr3O12,-3.934111662017544
mp-1216161,Y2Fe17C2,-0.0593480884126972
mp-1216166,Y10(SiGe)3,-0.7769455211458336
mp-1216168,Y5O4F7,-4.293024409374792
mp-1216169,Zr24P8H,-0.858868499914894
mp-1216181,Y2(B2Rh3)3,-0.6466172762745092
mp-1216184,Y(CuS)3,-1.133852859672619
mp-1216186,Y2As7Rh12,-0.7058044707936504
mp-1216197,Y6Cr(SiS7)2,-1.9689491658152176
mp-1216198,Y7(O2F3)3,-4.280832653933787
mp-1216201,Y2CrSbO7,-3.044222224128788
mp-1216205,Y4Mn3NiO12,-2.910569376508944
mp-1216210,Y(AlCu)6,-0.3614719887179485
mp-1216224,Y3Mn2Sb3O14,-2.733687781078652
mp-1216231,VW,-0.0693118899999998
mp-1216239,Y9Er3Al20O48,-3.6980307192499993
mp-1216242,W2N3,-0.6609280544279997
mp-1216251,Yb(InCu)6,-0.1212698435897436
mp-1216253,Y4Co16B3C,-0.2557090878472223
mp-1216255,Y2(AlNi)5,-0.6339551069444442
mp-1216259,Y2Al3Ga3(BO3)8,-3.019918072833333
mp-1216261,Y20Si12C,-0.7111573768686877
mp-1216268,Y9Lu3Al20O48,-3.70079650275
mp-1216271,Y3ErTi4(SiO9)2,-3.696137995267857
mp-1216272,Y16Mg3AlNi4,-0.2357731813888885
mp-1216275,Y(InCu)6,-0.1295837794871799
mp-1216283,Y6Ga17Pd5,-0.6937470914285707
mp-1216287,Y5Co19P12,-0.8761695162367723
mp-1216305,VSb(SeO3)4,-1.521743048854167
mp-1216310,VMoAs2,-0.3799606375
mp-1216321,UCoNi,-0.2542937166666673
mp-1216328,UAl7Fe5,-0.3040173053846156
mp-1216330,VFeSbO6,-2.120356080833332
mp-1216333,VNi3AsO8,-1.6217630480769232
mp-1216335,YErFe14B,-0.1117588689215685
mp-1216344,VGa(CuO2)2,-1.7690312768750012
mp-1216351,VGaNi6,-0.3016148750000003
mp-1216354,VCrP2,-0.6734065205357149
mp-1216355,VCrSbO6,-2.270331188611109
mp-1216356,Y4ZrNi25,-0.3122236407777781
mp-1216357,VFe2(CuO2)3,-1.5788079739583327
mp-1216358,VCu3Te3Se,-0.3010663977929688
mp-1216361,VP2PbO8,-2.530724555803571
mp-1216363,VCu3(SeS)2,-0.7134074851171874
mp-1216365,Y14Ag51,-0.2496040551794871
mp-1216369,Zr2P3H3O13,-2.807004606801157
mp-1216371,Y6O5F8,-4.286942278987894
mp-1216377,VCrCuS4,-1.0728823160714285
mp-1216381,VCu3(TeSe)2,-0.362749660585937
mp-1216384,Y9Al5S21,-2.112527331875
mp-1216386,Y4Fe4Co12B3C,-0.2751525395138898
mp-1216388,Zr18Co5Sn4,-0.3915427487037046
mp-1216392,VCrO3,-2.45174355275
mp-1216394,VCr,-0.0423345949999998