material_id,pretty_formula,formation_energy_per_atom
mp-1189819,Dy3Ge3Ru2,-0.7761261375000004
mp-1189825,Tb6RhBr10,-1.6162498764705884
mp-1189828,YCu6ClO8,-1.4760203054120833
mp-1189831,Gd3FeO6,-3.3994008317500004
mp-1189833,YbSiPd2,-0.9182710685416672
mp-1189834,Lu3Pt,-0.7564258906249997
mp-1189835,Er3Pt,-0.7299161756250001
mp-1189848,Tb5Bi3,-0.7071155206249999
mp-1189855,Ce(As3Os)4,-0.3635267820588226
mp-1189863,Tm5Si3,-0.7044387639583327
mp-1189870,Ca5Ga3,-0.3830792587499996
mp-1189871,Zr5Sn3N,-0.8977228635977773
mp-1189874,Sm5Sn3,-0.7150479120833335
mp-1189887,Dy3Os,-0.2567270524999996
mp-1189894,Y2MnCoO6,-2.8798259389781835
mp-1189895,Ta5Ge3B,-0.4493431520370355
mp-1189897,Ba2ThS6,-2.091153260972222
mp-1189906,Ca2CrSbO6,-2.718658359749999
mp-1189914,ZnSi(AgS2)2,-0.8282219411458334
mp-1189916,Zr5CdPb3,-0.250618533888889
mp-1189923,Tm4Ge6Ir7,-0.8972094525490197
mp-1189924,Nd2Zn5Sn,-0.4613959818750004
mp-1189925,HoB2Os,-0.5909933085416661
mp-1189929,Li2PtF6,-2.4376266128303703
mp-1189932,Mn(NbSe2)3,-0.7574416823717669
mp-1189950,LuSiPd2,-0.9964748381249996
mp-1189957,Ta3RhS6,-1.384666042375001
mp-1189958,TbAl3,-0.4315016324999995
mp-1189962,PrScS3,-2.399381978875
mp-1189965,TiH8(NF3)2,-1.955488185932941
mp-1189966,Dy4Ga12Ni,-0.5709361288235286
mp-1189967,Pr3Os,-0.0757585587499996
mp-1189974,LiLa(CN2)2,-0.940551213898333
mp-1189978,Hf5GaSn3,-0.4817195300000002
mp-1189981,Zr5ZnSn3,-0.5891576305555554
mp-1189984,YMoC2,-0.2378981989583337
mp-1189986,Ca3(GaP2)2,-0.8766927904761899
mp-1189987,Dy4Ga12Fe,-0.5287649847058818
mp-1189990,U3Sb4Pd3,-0.4942284979999997
mp-1189998,Gd2C3,-0.2306993529999999
mp-1190,ZnSe,-0.715297778671875
mp-1190002,Pr2Co3Ge5,-0.5708853609999999
mp-1190006,Pr2AlGe6,-0.4572107088888886
mp-1190011,Ho3Os,-0.2750081462500002
mp-1190019,LuZn3,-0.3408064843750003
mp-1190020,AlBi2Se2BrCl4,-1.21301122877275
mp-1190024,Ba3NaSbO6,-2.6598774565909094
mp-1190025,Ba2US6,-1.888739480972222
mp-1190028,TmAl3Ni2,-0.6559190611111111
mp-1190029,Sm3Os,-0.1589602049999996
mp-1190030,La3Sb4Au3,-0.9591926264999998
mp-1190033,Tb7MnI12,-1.1537317889827583
mp-1190038,Tm5Tl3,-0.2882700839583334
mp-1190040,Ce(Ge3Pt)4,-0.3938101297058819
mp-1190044,Tm4Ge6Os7,-0.4365446313725489
mp-1190072,Yb5CdCu2,-0.2758701454166665
mp-1190078,CeGa6Ni,-0.431008875624999
mp-1190079,Tb2Si4Mo3,-0.6646642599999998
mp-1190081,Ce4SiRh12,-0.741881984411763
mp-1190085,ZrB4Ir3,-0.5278213160416669
mp-1190089,CsHf2Br9,-1.528280381077586
mp-1190092,Ta3VS6,-1.4709643078750003
mp-1190093,Ba2NdInSe5,-1.61471788296875
mp-1190095,HoSiPt2,-1.1699636837499998
mp-1190096,TbWC2,-0.2680429975000002
mp-1190104,DyGePd,-0.9895367616666656
mp-1190111,GaHCl2,-1.0668184031599997
mp-1190112,Sm2Ge5Rh3,-0.8209677376666662
mp-1190117,Yb2CuTe2(SO7)2,-2.130462674623017
mp-1190125,Ba(BrF4)2,-2.127426031774545
mp-1190128,Dy2Ge5Ir3,-0.7196157514999996
mp-1190131,LaScS3,-2.475861778875001
mp-1190136,SrAl2Au3,-0.6429236994444446
mp-1190138,Na2In2SiS6,-1.20551209125
mp-1190141,Na2TeS3,-1.0018024111458328
mp-1190145,Na2In2GeS6,-1.1092214007954546
mp-1190146,Na2Cd(GeS3)2,-1.0410415544318186
mp-1190151,Sr3LiSbO6,-2.7861532567424248
mp-1190156,Ba2GdGaSe5,-1.6519409851909717
mp-1190157,Ba3(AlPt)4,-0.8629468927272732
mp-1190160,K2Se2O7,-1.5643470754034092
mp-1190166,Ba2Mg(GeIr)4,-0.6064159193939389
mp-1190170,SmSiPd2,-0.9461708814583334
mp-1190176,Ba3Sn2,-0.6479137050000006
mp-1190177,Dy2CoTe2(SO7)2,-2.425653641369048
mp-1190178,YNiB4,-0.5719775298611106
mp-1190181,Sr3Zn3Te(PO7)2,-2.648031994767081
mp-1190183,Li2CaTa2O7,-3.213758888506945
mp-1190188,Ba2Ge5Ir4,-0.5716816609090913
mp-1190195,LiIn(WO4)2,-2.201743833472221
mp-1190197,Er7(TeAu)2,-0.817547159545454
mp-1190199,CuSb6(SO8)2,-1.81532348065
mp-11902,Ba2GeSe4,-1.3543818477678566
mp-1190203,Lu2CuTe2(SO7)2,-2.3736136244642863
mp-1190209,RbHf2Br9,-1.5086274277083334
mp-1190212,Yb5Pt3,-1.0083730835416669
mp-1190224,ZnCu2SnS4,-0.7806892340625002
mp-1190225,YGePd,-0.9985062977777778
mp-1190231,Lu4Ga12Pd,-0.5548677847058819
mp-1190232,Yb3Sn5,-0.55989515
mp-1190234,Er8In3Co,-0.3505663183333336
mp-1190240,TmSiPt2,-1.180102562708333
mp-1190245,Gd2Hf2O7,-4.009276474886364
mp-1190246,Ir2Pb2O7,-1.4352113148863646
mp-1190248,Sm2Al3Ge4,-0.4689754829629622
mp-1190252,CsEr2Ag3Te5,-0.8594721539028221
mp-1190258,Yb3Pd,-0.53119842625
mp-1190259,Ba3UFeSe6,-1.479595214005682
mp-1190267,Hf3As2,-0.9048194350000004
mp-1190279,Tb7RhI12,-1.2599932884999998
mp-1190282,Ho3NiGe2,-0.7959721141666675
mp-1190284,Bi8Se9,-0.3372576988878677
mp-1190294,Zr5Sn3Se,-0.7955688630381945
mp-1190295,CsPr2Ag3Te5,-0.9110659993573672
mp-1190296,RbMgCO3F,-2.624936287253332
mp-1190297,DyGa3,-0.5277842649999998
mp-1190299,Nd2Ir2O7,-2.442016333068183
mp-1190316,YbFe4(CuO4)3,-1.665988092583332
mp-1190321,Zn3P2Pb3WO14,-2.186720871288821
mp-1190323,CsTb2Ag3Te5,-0.8868929084482757
mp-1190325,Ag2P2PdO7,-1.7970638143799615
mp-1190334,LaTl2P2S7,-1.166482389501488
mp-1190335,BaCdAs2O7,-2.118331961704546
mp-1190336,Ho2CoTe2(SO7)2,-2.4254067713690484
mp-1190339,Na3Ca3AlSb4,-0.7130829563636361
mp-1190340,Ba3TaFe3(SiO7)2,-2.934390332934783
mp-1190341,Nd2CoTe2(SO7)2,-2.409792320892857
mp-1190352,HgP2PdO7,-1.9685531664448064
mp-1190360,CaSeO4,-2.109562266640625
mp-1190364,Li2SnS3,-1.215899658368056
mp-1190367,SrCdAs2O7,-2.118288305492425
mp-1190368,DyReB4,-0.5904100988888885
mp-1190370,CsNd2Ag3Te5,-0.9107435279937306
mp-1190373,K2V2CoO7,-2.2956490703958337
mp-1190385,Tb2CoTe2(SO7)2,-2.4254875913690475
mp-1190388,Na2Ga2GeS6,-1.1764080317045456
mp-1190390,Ba(ClO4)2,-1.229947885138181
mp-1190391,Zr5InPb3,-0.2862429911111117
mp-1190395,FePH12(CBr)4,-0.4335965010005193
mp-1190396,Sm2ZnTe2(SO7)2,-2.4417085288293663
mp-1190398,MnVGaCo,-0.305458652413793
mp-1190399,Na2Zn(GeS3)2,-1.0733854444318178
mp-11904,LiSm2IrO6,-2.751482855083333
mp-1190401,BaAgSbS3,-1.2004936029513888
mp-1190404,Sr3LiNbO6,-3.110011914924243
mp-1190414,Yb7In(NiGe3)4,-0.6018816611111113
mp-1190416,Ba3Zn3Te(PO7)2,-2.639184306506212
mp-1190421,CsDy2Ag3Te5,-0.879572038448276
mp-1190423,Na2Se2O7,-1.506369714857955
mp-1190427,LaSbO4,-2.860270825
mp-1190434,Li2IrO3,-1.7340785357638886
mp-1190439,Sm2Co3Ge5,-0.5894227546666663
mp-1190441,LiSbF4,-2.870894529821112
mp-1190444,ErReB4,-0.6006929651388889
mp-1190450,NaNbSe2O7,-1.9913483657670468
mp-1190452,Sm2CoTe2(SO7)2,-2.4164070921627
mp-1190453,Pr3AsS5Cl2,-2.107353712467728
mp-1190454,BaHgAs2O7,-1.9393520080681823
mp-1190455,CsGd2Ag3Te5,-0.9063847002664572
mp-1190457,Ba3UAgS6,-1.9925281733712128
mp-1190462,Gd2Al3Ge4,-0.4655796461111118
mp-1190466,CoBi6(SO8)2,-1.849813511449999
mp-1190470,Gd2CoTe2(SO7)2,-2.3734573327976203
mp-1190471,Ba(Sn2Ru)3,-0.313387331500001
mp-1190472,CsHo2Ag3Te5,-0.8684285439028211
mp-1190475,Lu2CoTe2(SO7)2,-2.4397139585119056
mp-1190476,Na2Zn(GeSe3)2,-0.6214849985511367
mp-1190478,PbAu2,-0.0677046137499998
mp-1190486,Sr3LiTaO6,-3.21709965310606
mp-1190487,Na2Zn(SnS3)2,-1.0727380167045448
mp-1190488,Al4CdO7,-3.107678956145834
mp-1190493,NiH5CN(ClO)2,-1.036372574541666
mp-1190498,Zn3TeP2Pb3O14,-2.097126892158385
mp-11905,LiNd2IrO6,-2.7264941274166667
mp-1190500,Na2TeSe3,-0.6294766111718744
mp-1190505,Y2CoTe2(SO7)2,-2.4162734076388896
mp-1190512,Na2UTeO7,-2.532549374886365
mp-1190513,FeH5CN(ClO)2,-1.1663432528749993
mp-1190516,CsSm2Ag3Te5,-0.9005462504179728
mp-1190523,HoGePd,-0.9943242820833332
mp-1190527,Dy2ZnTe2(SO7)2,-2.450872731845237
mp-1190528,Ba2ZnSe3,-1.5988642145052083
mp-1190530,Ba3(Ge4Ir)4,-0.3862037726086953
mp-1190542,TbSi3Ni8,-0.5750586604166669
mp-1190543,Rb2Se2O7,-1.563281103039773
mp-1190545,Ba2MgGe2O7,-2.803207028506945
mp-1190548,Na2U2O7,-3.289317605340909
mp-1190551,Na2FeSO4F3,-2.5079377599268184
mp-1190561,KTb(WO4)2,-2.6753160531666658
mp-1190566,TlSO3F,-2.0152280988441658
mp-1190574,HoPS,-1.777266427648809
mp-1190583,NbS3,-1.2705057198437508
mp-1190588,Ba2Cd(BO2)6,-2.9067583735714284
mp-1190589,Tm2Mn12P7,-0.7178615420251779
mp-1190597,Ba3UMnS6,-2.0375116834913807
mp-1190599,DyNiB4,-0.5801401434722232
mp-11906,LiPr2IrO6,-2.6974028304166664
mp-1190600,La3SbO7,-3.381000843522728
mp-1190604,Nb3Al2C,-0.4563408599999998
mp-1190606,Nd6Zn4Pd13,-0.8000784478260862
mp-1190608,Ho2Fe17C3,-0.0841324177272727
mp-1190610,Ho7(TeAu)2,-0.8179507550000001
mp-1190612,UMnB4,-0.588404507581418
mp-1190617,Dy2Mn12P7,-0.7103853245648611
mp-1190619,Ca(BH4)2,-0.4617212755115147
mp-1190620,Nd3(GaNi3)2,-0.4544748386363638
mp-1190623,Ba2ZnS3,-1.990509273229168
mp-1190624,LiLuSn,-0.6066152588888887
mp-1190626,Hf2Rh,-0.6226510758333331
mp-1190633,Yb2CoTe2(SO7)2,-2.1968264143849217
mp-1190635,Na2OsO4,-1.762276991190476
mp-1190638,DyGePd,-0.9954865708333336
mp-1190639,CsK2Fe3P4ClO14,-2.5308219575590702
mp-1190642,Er2Fe12P7,-0.722540599047619
mp-1190647,Ge3F8,-2.567572569956363
mp-1190660,Tb3MnB7,-0.5791719911807731
mp-1190661,V3Ga2N,-0.6598721978966656
mp-1190663,LuCrB4,-0.6999152659722215
mp-1190664,Tb2Ni12P7,-0.7720496104761905
mp-1190670,Gd3B7W,-0.5297604148484848
mp-1190673,Dy4Ni13C4,-0.347293824285714
mp-1190679,PrSi2Ni9,-0.4602033745833331
mp-1190680,Mg(BH4)2,-0.3228270221781819
mp-1190681,ZrFe2,-0.2492042441666662
mp-1190682,CsPr3CI6,-1.3336116334482762
mp-1190687,CsLi2Cl3,-2.169809035590728
mp-1190689,GdSi3Ni8,-0.5698111662500006
mp-1190698,KBaSbSe3,-1.1428800104218748
mp-1190699,CO2,-1.7716455837499996
mp-1190707,Tm2Fe12P7,-0.7229686693650795
mp-1190708,Al3Fe2Si,-0.4015079866666665
mp-1190710,Sc5(In2Co)2,-0.4498698195454544
mp-1190711,Sr2(ZnAu2)3,-0.5507134730303029
mp-1190715,Er3FeB7,-0.6387312148484845
mp-1190717,MgPH13O9,-1.6518965298006147
mp-1190726,Cs4In2S5,-1.3174355238499216
mp-1190732,LaSi2Ni9,-0.4666437283333333
mp-1190733,Cs4PbCl6,-2.090352041025831
mp-1190736,Ca8Al3,-0.1590290404545455
mp-1190738,Dy2Fe17C3,-0.0812589818181818
mp-1190739,TmNiB4,-0.5636018336111116
mp-1190744,Ba3GdInS6,-2.144824980795455
mp-1190750,ErH3,-0.7155815768816662
mp-1190756,Lu8In3Co,-0.3540759387500003
mp-1190760,Ta3Al2C,-0.4489552970833325
mp-1190761,NaGaCl4,-1.7828413913400003
mp-1190768,LiSmSn,-0.6696174737499998
mp-1190773,Y2Si3Rh,-0.9449009077777776
mp-1190778,Zn3As2(H2O3)4,-1.5895865159584002
mp-1190784,TaTe4Os,-0.2375535554166662
mp-1190785,CsDy2Cu3S5,-1.5335034825960037
mp-1190787,ErMnB4,-0.6690155763314181
mp-1190788,TaTe4Rh,-0.4158938458333334
mp-1190791,Dy2Fe12P7,-0.7137221585714293
mp-11908,Lu5Si3,-0.7064955256249998
mp-1190809,Li8TeN2,-0.6432533125539392
mp-1190813,Cs2U(PtSe2)3,-0.8406236004103805
mp-1190820,Ba2FeGe2O7,-2.582858158645833
mp-1190821,Y2Fe17C3,-0.0775418166666668
mp-1190822,BaSi9Rh2,-0.3843823149999998
mp-1190827,Ba2CoGe2O7,-2.523187573229168
mp-1190832,YB4Ru,-0.6227599398611107
mp-1190833,NdSi2Ni9,-0.4660128766666662
mp-1190834,SrNdCuS3,-1.990529405173612
mp-1190838,RbLaF4,-4.023300265376666
mp-1190839,YMo2O7F,-2.686934680752122
mp-1190840,Li8Pr7Ge10,-0.686700487133333
mp-1190841,Hf2Co,-0.290460964166666
mp-1190842,Rb6HgS4,-1.1638977711363638
mp-1190845,Nd2Hf2O7,-3.990540819431818
mp-1190853,Er3(GaNi3)2,-0.5718378436363639
mp-1190858,BaFe2(P2O7)2,-2.6960581981802725
mp-1190862,Sc2Pd,-0.6622453233333339
mp-1190864,BaAu2(SO4)4,-1.8716914348913043
mp-1190869,NaBH4,-0.4214446979688884
mp-1190880,HfMn2,-0.2493327860201155
mp-1190882,LiLu(WO4)2,-2.6776303513888884
mp-1190886,Cs2AgCl3,-1.7747242494125672
mp-1190889,SrGdCuSe3,-1.557965897699652
mp-1190894,Gd3ReB7,-0.5570370057575761
mp-1190898,Bi7O5F11,-2.444769151058261
mp-1190900,BaZn2Si2O7,-2.861365279895834
mp-1190901,VZn2IO7,-1.68673188625
mp-1190904,Tb3Si2Ni,-0.7280121745833329
mp-1190907,Rb6HgSe4,-0.972438968125
mp-1190908,Ga9Rh2,-0.346844992727272
mp-1190911,Rb3V5O14,-2.4157726877272734
mp-1190915,TcCl3,-1.153961007028333
mp-1190931,NaFe(MoO4)2,-2.0826339304166672
mp-1190934,Gd8Rh5C12,-0.3807264792000001
mp-1190935,K2CuP2O7,-2.410571014324406
mp-1190942,Mg(BH4)2,-0.3312294080872727
mp-1190945,La3MgAlS7,-2.2492249679340284
mp-1190949,Ba2ZnGe2O7,-2.5899975973958345
mp-1190950,Sc2Mn12P7,-0.720408092183909
mp-1190952,TbPS,-1.790148490565476
mp-1190968,Y3TaO7,-3.842791101704546
mp-1190970,Dy3ReB7,-0.6109435571212122
mp-1190974,SiAg2S3,-0.7020435089236118
mp-1190975,Rb2Zn5Sb4,-0.2228290972727274
mp-1190994,NdHO,-2.4261274499566667
mp-1190996,CsGd2Cu3Se5,-1.122685241331798
mp-1190997,Na3TiF8,-3.149020988293333
mp-1190998,PrPS,-1.7679639043154758
mp-1191002,Nd2Ni12As7,-0.5285182071428584
mp-1191003,Er3MnB7,-0.6491968984534989
mp-1191013,Gd3MnAlS7,-2.007013227627515
mp-1191014,Ce3NiGe2,-0.6548703162499999
mp-1191015,LiNdSn,-0.6683317838888888
mp-1191016,Tm3B7W,-0.6415620189393937
mp-1191019,Er2Mn12P7,-0.7158903669458141
mp-1191021,Ca(BH4)2,-0.4580463309660597
mp-1191023,Bi3Te4(ClO2)5,-1.5332957122181818
mp-1191026,YPS,-1.7790816545932546
mp-1191029,PrCO4,-2.448023471249998
mp-1191035,Ce2Si3Rh,-0.8926308949999999
mp-1191037,AgAs(SeF2)3,-1.6589792920458712
mp-1191038,LaIn2Ni9,-0.2067646808333337
mp-1191040,Tb4Ni13C4,-0.341335247619048
mp-1191051,UFeB4,-0.5421866543055552
mp-1191058,Dy8Ga3Co,-0.4021902591666671
mp-1191062,BaReH9,-0.3939166865981818
mp-1191066,La3IrO7,-3.0872202085227283
mp-1191068,V3Zn2N,-0.6135586208133326
mp-1191070,UCoB4,-0.5068570247222214
mp-1191074,CeNiB4,-0.5837462388888888
mp-1191078,Y2Ni12P7,-0.767990698888889
mp-1191079,Ti7P4,-1.1310626844805192
mp-1191083,HfMo2,-0.164964106666666
mp-1191085,LiY(WO4)2,-2.6534083879166666
mp-1191097,Ce4S3NCl3,-2.4151231824122728
mp-1191100,K2Zn5As4,-0.3396463223636362
mp-1191101,KMgBO3,-2.795301535986112
mp-1191108,SmRh3,-0.5504284191666654
mp-1191110,La3Mn2Sb3O14,-2.739664768124108
mp-1191111,SrTi(PO4)2,-3.190867194900793
mp-1191117,Gd3SbO7,-3.372354371250001
mp-1191118,Cs2Sb,-0.3767894936206897
mp-1191126,Ce3Co8Si,-0.3130150137500003
mp-1191127,LiCr(WO4)2,-2.271056810972221
mp-1191130,GdReB4,-0.5699457047222213
mp-1191138,LaGaBi2,-0.57659872625
mp-1191139,Sm3SbO7,-3.3620559080681818
mp-1191141,SrLi2SiO4,-3.0300162341666663
mp-1191145,Rb2LaNb2O7,-3.010257353229168
mp-1191147,Sm2Fe12P7,-0.6822303331746027
mp-1191149,Rb2U(PtS2)3,-1.2569113248958337
mp-1191153,Lu2Co12P7,-0.8119286861904765
mp-1191155,TiP2PbO8,-2.819105804761905
mp-1191159,LiPrSn,-0.6663604126388888
mp-1191179,TmH3,-0.7150155952150001
mp-1191181,Ho2Fe12P7,-0.7191105909523794
mp-1191189,Cd2Sb2O7,-1.8039717139772729
mp-1191192,Sm4Ge7,-0.7223822353030307
mp-1191197,Sr2(GaAu2)3,-0.5602219184848487
mp-11912,NaNd2IrO6,-2.633425579750001
mp-1191203,CuNiSbS3,-0.6334957307291665
mp-1191206,K6HgSe4,-1.0030252174886365
mp-1191219,GdRh3,-0.5697458695833326
mp-1191222,Dy4Ga16Co3,-0.509910995869565
mp-1191223,SnSb4S7,-0.6616954905729161
mp-1191240,Sr2ZnSi2O7,-3.1907579468402787
mp-1191245,LuH3,-0.7074035906316661
mp-1191254,Ho3B7W,-0.6055295493939393
mp-1191262,Ga9Ir2,-0.309232275909091
mp-1191263,CeIn2Pd3,-0.6759186462499999
mp-1191266,BiIO4,-1.2464565733333342
mp-1191273,Tb3NiGe2,-0.785544155833333
mp-1191275,Ho3(SiNi3)2,-0.6701267627272732
mp-11913,NaPr2IrO6,-2.6204143987500004
mp-1191300,Tb3OsO7,-3.198842707613637
mp-1191301,RbGa2Au3,-0.334233140833333
mp-1191311,Ba2MgSi2O7,-3.371409972673612
mp-1191314,Y2Ni12As7,-0.5361021646031754
mp-1191317,Sr2CoGe2O7,-2.5432454460069445
mp-1191328,Ce2Co12P7,-0.7753021519047617
mp-1191331,Ti2Co,-0.2847772299999995
mp-1191333,Zn2MoSeO7,-1.770434168735796
mp-1191335,Cs2U(PtS2)3,-1.2638878345510058
mp-1191341,Te2H2O3F4,-1.937179261431818
mp-1191346,Gd2Fe17C3,-0.0716753831818176
mp-1191353,RbGaH4,-0.2831559732466668
mp-1191355,GdIn2Ni9,-0.2148263091666666
mp-1191359,ErB4Ru,-0.647509769722222
mp-1191360,Ba3SmInS6,-2.138850144280303
mp-1191364,WO3,-2.169892295520833
mp-1191365,GdPS,-1.7922805055654756
mp-1191367,Pr3CoGe2,-0.6380406829166662
mp-1191368,NdNiB4,-0.5316416955555544
mp-1191371,TmCrB4,-0.6926922577777775
mp-1191378,Tb3SbO7,-3.4279399985227275
mp-1191380,FeB4O7,-2.642769286631944
mp-1191386,BaCoAs2O7,-2.0890088232954542
mp-1191394,Li8Nd7Ge10,-0.6892060829333337
mp-11914,NaLa2IrO6,-2.71371602475
mp-1191401,HfFe2,-0.2650667312500007
mp-1191402,GdMnGe2O7,-2.545964662215016
mp-1191404,Ce2Fe17C3,-0.0514813645454536
mp-1191406,Gd3CuSiS7,-1.9278631072395835
mp-1191413,YRh3,-0.5824958091666659
mp-1191422,TiCo2,-0.304942963333333
mp-1191426,Rb2U(PtSe2)3,-0.8173815324218753
mp-1191428,Sc2Co12P7,-0.8091905242857143
mp-1191434,ErFeB4,-0.6384556693055549
mp-1191455,Ho3MnB7,-0.6277264548171373
mp-1191458,Sm8Ga3Co,-0.3512279409722225
mp-1191459,KZn(BO2)3,-2.6431847018636363
mp-1191460,HfMn,-0.1881716473275858
mp-1191467,Cs2CuP2O7,-2.398081873896245
mp-1191472,Tb8Ga3Co,-0.393765319583333
mp-1191478,Tm2Fe17C3,-0.089885580303029
mp-1191488,Ba2Ge4Pd5,-0.6808669836363634
mp-1191492,LaPS,-1.871888728065476
mp-1191493,Li8Sm7Ge10,-0.6882172674666669
mp-1191502,VIn(SeO4)2,-1.7195885899739582
mp-1191513,Na3Sc(BO3)2,-2.825897267430556
mp-1191527,CsGa2Au3,-0.3124801334051721
mp-1191528,Dy2Si3Rh,-0.9405599624999988
mp-1191537,Yb7Ni4Sn13,-0.538463483194444
mp-1191538,Ca8In3,-0.332810829090909
mp-1191539,Tb2Fe17C3,-0.0772560709090906
mp-1191543,HoCrB4,-0.6730394626388877
mp-1191559,NbRh3,-0.5277131012499995
mp-1191561,Tb2Fe12P7,-0.7106075233333323
mp-1191565,SmPS,-1.7844606404265877
mp-1191571,DyH3,-0.7125058589649994
mp-1191573,Tb2Mn12P7,-0.7061115469458127
mp-1191586,Zn(BH4)2,-0.153759300511515
mp-1191587,Gd4MgRh,-0.3819978434722202
mp-1191588,Dy2Co12P7,-0.802923036190476
mp-1191589,Ca2Ni12As7,-0.47114639904762
mp-1191596,ErPS,-1.7695547993154763
mp-1191597,Sm3SbO7,-3.361878331250001
mp-1191603,Yb2Cu3Te4(ClO3)4,-1.706196558454933
mp-1191610,Zr7As4,-1.0003072536363633
mp-1191613,AsS2,-0.5106510912499994
mp-1191614,Dy3B7W,-0.5860726234848476
mp-1191623,Ce2Ni12As7,-0.5293410161904771
mp-1191628,PW6Cl17,-1.198039325999643
mp-1191636,CsCdBO3,-2.219736079169061
mp-1191641,YVB4,-0.7018330794444445
mp-1191649,CaSi7Ir3,-0.6452551249999992
mp-1191656,Rb2Cd5As4,-0.2935234659090908
mp-1191661,Dy3(GaNi3)2,-0.5528954209090909
mp-1191665,Tb4Ga16Co3,-0.514359422391304
mp-1191667,NdPS,-1.7753479405654768
mp-1191670,TbMnB4,-0.630734015914752
mp-1191671,Er2Fe17C3,-0.0874050622727263
mp-1191673,Na2BSO4F3,-2.69468907363894
mp-1191678,K3NaMnCl6,-2.0335287930195616
mp-1191694,Sr2LiGe3,-0.5614083070833331
mp-1191699,Gd3MnGaS7,-1.9270797001275155
mp-11917,Mg(BeN)2,-1.182801121618667
mp-1191705,Er2Si3Rh,-0.924398630416666
mp-1191707,Lu3(SiNi3)2,-0.704030657727273
mp-1191708,TaTe4Ru,-0.3434506279166657
mp-1191710,LuFeB4,-0.6603529284722214
mp-1191713,Hf3(VGa3)2,-0.4163168627272711
mp-1191719,Pr3(GaNi3)2,-0.4281261886363636
mp-1191722,Ho3(GaNi3)2,-0.5627911313636363
mp-1191729,LiHo(WO4)2,-2.663715521388889
mp-1191731,Er3B7W,-0.623788609848484
mp-1191743,Tb3B7W,-0.5638472753030302
mp-1191748,NaCe3GeS7,-1.905009995989584
mp-1191749,Y2Ir2O7,-2.516991917310608
mp-1191755,Yb2Fe12P7,-0.6525502953968255
mp-1191758,Dy2Ni12As7,-0.5375334461904766
mp-1191763,KPb2C2O6F,-2.0277522001408337
mp-1191771,LuB4Ru,-0.6532683788888889
mp-1191777,NbCr2,-0.0199783516666668
mp-1191784,Tb5(In2Ni)2,-0.5186542763636365
mp-1191787,LiCa3OsO6,-2.663202847196969
mp-1191795,Ho2Ni12As7,-0.5338900257142867
mp-11918,Ca(BeN)2,-1.259684480952
mp-1191806,Mg3TiNi2,-0.260493497083333
mp-1191810,La2Si3Rh,-0.9319338829166656
mp-1191811,BaZnTe2O7,-1.988598584886364
mp-1191816,Gd3BeCrS7,-1.965521374739584
mp-1191817,Li2In2SiSe6,-0.7494810074905303
mp-1191823,CeSi2Ni9,-0.4797077170833337
mp-1191826,KBaAsSe3,-1.109246548755208
mp-1191827,Tb3(AlNi3)2,-0.5510225031818181
mp-1191829,Li2Co12P7,-0.6400732344444442
mp-1191833,Gd2Fe12P7,-0.701471594285714
mp-1191834,Ho8Ga3Co,-0.40958109125
mp-1191842,Na2VNiF7,-2.9068805562118176
mp-1191843,Yb2Mn12P7,-0.6654858537712097
mp-1191848,Tm3(AlNi3)2,-0.5983278177272731
mp-1191851,Yb3(SiNi3)2,-0.5875387109090912
mp-1191856,In2As2Cl2O5,-1.7538801688881824
mp-1191858,Tl4CuTeO6,-1.162374409375
mp-1191861,Tb2Si3Rh,-0.9372651083333328
mp-1191863,Pr2Fe12P7,-0.6399017980952373
mp-1191866,Y4Ga16Co3,-0.5108356147101448
mp-1191870,Y4Ni13C4,-0.333888411111111
mp-1191877,LiGdSn,-0.6640420655555559
mp-1191880,Sr2LiGe3,-0.5588746266666664
mp-1191887,Cs2U(PdSe2)3,-0.8600809491603805
mp-1191890,Gd3NbO7,-3.6977810017045454
mp-1191899,DyVB4,-0.7102140588888884
mp-11919,Sr(BeN)2,-1.208472016285333
mp-1191903,Li2In2SiS6,-1.220963654280304