material_id,pretty_formula,formation_energy_per_atom
mp-1220047,Pr2Si2PbSe8,-1.0391941383653842
mp-1220050,PrGa2Ni3,-0.5062598847222222
mp-1220051,NdHoAl4,-0.4981347650000002
mp-1220059,Pr6Mn(GeS7)2,-1.8992708010176167
mp-1220061,P3Pb5O12F,-2.374382028662108
mp-1220062,P3Pb5BrO12,-2.251345007414965
mp-1220063,Pr7In6Ni5Ge3,-0.5872945997619048
mp-1220064,Pr9Al5Se21,-1.5337713698348214
mp-1220065,Rb3(Cr5Se8)4,-0.625747123227273
mp-1220066,P2Pb4SO12,-2.2531123986983084
mp-1220068,Rb2U6Pt4Se17,-0.99929779309806
mp-1220077,NdSiBO5,-3.411058629531249
mp-1220083,Ni9(SnS)2,-0.357151507403846
mp-1220084,NdTiCdSbO7,-2.7865639112500005
mp-1220085,Ni3Te4,-0.2057088300000004
mp-1220099,Ni4(SnSb3)3,-0.1468380878125001
mp-1220100,NdSmFe4Co13,-0.0659041178070173
mp-1220106,Pr12Si5Se28,-1.4027215669027775
mp-1220116,NdTaTiO6,-3.6376811983333335
mp-1220117,NdUTe6,-0.7359941237500003
mp-1220119,PrH18(BrO6)3,-1.2686610900665003
mp-1220131,NiBi6Rh,-0.0940585293750002
mp-1220132,Pr9Ga5S21,-1.9603668143035715
mp-1220139,NdGePt,-1.0087575349999998
mp-1220141,Ni8Bi8S,-0.145171103713235
mp-1220145,Pb12BrCl7O8,-1.537416398672144
mp-1220146,Ni8Bi8SI2,-0.2108334112171048
mp-1220147,Pr12Ge5S28,-1.891644106166668
mp-1220151,Ni(Te4Mo3)2,-0.2408279333333325
mp-1220152,NdGaSi,-0.6974942683333337
mp-1220154,NdU2S5,-2.033870465703125
mp-1220155,NdAlSi,-0.6571795183333334
mp-1220157,NdFeCoSi2,-0.7067032609999998
mp-1220159,NdGa3Pd,-0.6878094359999999
mp-1220160,NdGa3Pt,-0.7241996759999992
mp-1220161,NdAlSi,-0.6616202033333334
mp-1220167,Ni11(GeTe2)2,-0.2329060941176471
mp-1220168,NdGa3Cu,-0.5046715579999997
mp-1220172,NdAl2Pt3,-1.082304971666667
mp-1220173,NdCuGe,-0.620066943333334
mp-1220176,Pr2InCuS5,-1.7206104842361114
mp-1220177,NdAlNi4,-0.4696016950000003
mp-1220178,NdCu4Pd,-0.2700450883333332
mp-1220179,NdTiNbBi2O9,-2.8647096940178574
mp-1220182,NdCu3Pd2,-0.3916815783333334
mp-1220185,NdThUS5,-2.230264047265625
mp-1220190,Pb12Br7ClO8,-1.3457865372592863
mp-1220196,Nd4Cu3Ni,-0.2207104750000006
mp-1220202,Nd4Zn3Au5,-0.689074075416667
mp-1220203,NdCdIn,-0.4303542966666669
mp-1220204,NdCuNi4,-0.2600567816666667
mp-1220207,NdBi3(Ru2O7)2,-1.80163497943182
mp-1220208,Nd3Y,0.0007133516666657
mp-1220209,P6(Pb2O5)5,-2.2996541307970384
mp-1220214,NdBiRu2O7,-2.03896980034091
mp-1220219,NdGa2Pt3,-0.8911140399999997
mp-1220237,Nd6Mn(SiS7)2,-2.0122906758002244
mp-1220243,Nd6Mg(GeS7)2,-1.989006603786232
mp-1220245,Nd2ZnSb4,-0.7223479507142859
mp-1220249,Pr14Ag51,-0.2467852746153845
mp-1220251,Nd4Mn(NiO4)3,-2.5539862452807576
mp-1220253,Nd4Mn3NiO12,-2.860708171842276
mp-1220256,Nd6Ge3S14,-1.871369880163044
mp-1220258,NdGa2Ni3,-0.5196419711111118
mp-1220262,Nd6Cd(GeS7)2,-1.9067983749456523
mp-1220265,Nd4CdSi3O13,-3.4659222033928576
mp-1220267,Nd4Co3Ge8,-0.6568684036666668
mp-1220273,Nd6Ge3Se14,-1.3303837388179345
mp-1220276,Nd3Bi(Ru2O7)2,-2.287108828977274
mp-1220278,Nd4Fe4Co12B3C,-0.2060258885416672
mp-1220280,Pr14Au51,-0.6312315363076917
mp-1220286,Nd3GdAl4O12,-3.681871669249999
mp-1220287,Nd2Mn3FeSi4,-0.585266707896551
mp-1220295,Pr4In5Cu19,-0.1997137253571428
mp-1220298,Ni17(GeSe)4,-0.2888239115750013
mp-1220301,NbTlWO6,-2.377391061944444
mp-1220303,Nd6Cd(SiS7)2,-1.9998272453804355
mp-1220313,Nd2SbO2,-2.8795397355000008
mp-1220316,NbW,-0.0415185650000005
mp-1220322,NbRe,-0.1381105775000009
mp-1220323,NbTc,-0.1286797249999995
mp-1220327,NbMo,-0.0743070400000007
mp-1220330,Nd2Al3Ge,-0.5791350533333333
mp-1220335,NbMoW,-0.0577232466666686
mp-1220336,Nd2Fe4Co13,-0.055922869736843
mp-1220339,Nd2CdSb4,-0.7038380371428572
mp-1220340,Nd2Ge3Pd,-0.8209936666666664
mp-1220346,Nd5Sn15Rh8,-0.6973258389285704
mp-1220349,NbB2W,-0.5850307641666657
mp-1220374,NbVCr,-0.0896662866666666
mp-1220380,Nd3NiSn7,-0.6015863845454542
mp-1220382,Nb5(SeS)2,-0.912132221215278
mp-1220383,NbB4Mo3,-0.5636747316666657
mp-1220384,Nd2Ga3Cu,-0.5695774983333332
mp-1220386,Nd2CuSi3Rh2,-0.920015774374999
mp-1220403,Nd2Ga5Cu3,-0.4709397200000005
mp-1220405,Nd2Fe3CoSi4,-0.6641747085000006
mp-1220409,Nb6OsAu,-0.1665663862499986
mp-1220413,NbSeS,-1.145738998489583
mp-1220418,Nb6RuRh,-0.2224445849999998
mp-1220421,NdTi12(Bi5O16)3,-2.6347785635526324
mp-1220426,NbNi6Mo,-0.1963744450000009
mp-1220430,NbMoO4,-2.6005292925000005
mp-1220437,Nd2MnFe3Si4,-0.6057489219655168
mp-1220451,Nb4Cr(CS2)2,-1.0512059374999994
mp-1220452,NbCu3(SeS)2,-0.7246429051171877
mp-1220460,Nb4CuSe8,-0.7793928229807687
mp-1220467,Nd2FeCo17Si8,-0.4752254323214292
mp-1220473,NbTlTeO6,-2.0672534747222224
mp-1220476,NbAl2Ni9,-0.4095795441666669
mp-1220483,Nb6TlS8,-1.385940940333334
mp-1220486,Nd(SmSb)3,-1.0515345557142857
mp-1220487,Nd2P7Rh12,-0.9195040057142848
mp-1220489,NbSb3O8,-2.1853483766666657
mp-1220497,NbV(Cu3Se4)2,-0.4994835955468746
mp-12205,Ti4O7,-3.416087894431818
mp-1220514,Nb5Cr(B2Ru5)2,-0.4076574921666676
mp-1220520,Nd4Rh,-0.3162592853333336
mp-1220522,NbVCo,-0.1608807608333329
mp-1220524,Nd2FeCo3Si4,-0.7361661864999995
mp-1220533,NiBi,-0.0211366743749996
mp-1220541,Nb4GeSe8,-0.7777842383653848
mp-1220545,Nd2MnFeO6,-2.917158745311517
mp-1220550,Nb6V3Ni3C2,-0.3246583071428576
mp-1220559,Nb4H3S8,-1.2389315447240004
mp-1220560,Nd2(InSn)3,-0.4915497437500002
mp-1220566,Nb3WSe8,-0.7750357132291666
mp-1220574,Nb9TlSe12,-0.8357922499147734
mp-1220582,Nd(ScSi)4,-0.7857055841666659
mp-1220584,Nb9AsO25,-2.916765087750001
mp-1220590,Nb3SnH,-0.2592161687240008
mp-1220592,Nb6Pd2Se15,-0.7493190291372277
mp-1220596,Nb4AgS8,-1.339594859871795
mp-1220597,Nb3SnH2,-0.2678978537066676
mp-1220599,NbVNi,-0.1736941600000001
mp-1220604,Nb9PO25,-3.0250982762806125
mp-1220616,Nd2Si2PbSe8,-1.0312371964423084
mp-1220623,Nd2Si2PbS8,-1.6337394950000004
mp-1220626,Sc36In5Co13,-0.3244284458333334
mp-1220634,Nb2Tc,-0.1179901033333337
mp-1220639,Nd2MnFe3Ge4,-0.457605358965516
mp-1220648,Nb3Ag2TeS6,-1.1439365562847232
mp-1220655,Nd9Al5Se21,-1.528871829977679
mp-1220657,Nb3S5,-1.5207247063281253
mp-1220665,Nd2Mn3FeGe4,-0.468865356896552
mp-1220668,Nd12Si5Se28,-1.3980322640138891
mp-1220675,Nb2(AlGa)3,-0.3589263862499994
mp-1220678,Nb2Pd,-0.2332143433333335
mp-1220682,NaYF4,-3.988845622182222
mp-1220683,NbSn6OF15,-2.7633516795260875
mp-1220689,Nb(ZnGa)3,-0.188041205
mp-1220691,Nb2CuS4,-1.2941611003571427
mp-1220696,Nb2AgS4,-1.252610296547621
mp-1220697,Nb2AlB6,-0.4710311611111106
mp-1220699,Nd9Al5S21,-2.128540138446429
mp-1220700,Nb2Al3Ir,-0.6277934666666667
mp-1220707,NaZn2CdF7,-2.662422828939091
mp-1220708,NaHoF4,-4.01581930496
mp-1220713,Nb4P2S21,-1.0634330441765871
mp-1220714,NaLaS2,-2.1841643890625004
mp-1220715,Nb3Fe(BiO3)6,-2.240217269017857
mp-1220716,Nb2GaCo3,-0.2489381383333331
mp-1220717,Nd7In6Ni5Ge3,-0.5996013704761909
mp-1220718,Nd9Ga5S21,-1.9599923084464284
mp-1220720,Nb2Co3Ge,-0.3111897641666665
mp-1220721,Nd14Ag51,-0.2485091312307697
mp-1220728,NaLi(AsS2)2,-0.927166668020834
mp-1220735,NaLa(WO4)2,-2.6157093066666675
mp-1220743,Nb(GaNi4)3,-0.3077557650000004
mp-1220750,Nb10Ge6C,-0.5364562635294121
mp-1220757,NaLa(MoO4)2,-2.601729506666666
mp-1220763,Nb3Al(PO4)6,-2.924562514453781
mp-1220764,NaHfScO4,-3.561428113928571
mp-1220768,NaYF4,-3.988124712737778
mp-1220774,Na5SrTaP4,-0.6149541791774893
mp-1220783,Na5SrNbP4,-0.6046408805411254
mp-1220784,NaInSn2,-0.1450603668749996
mp-1220785,NaLaTi2O6,-3.4486322742499995
mp-1220786,Nb12TlTe16,-0.4480145175862074
mp-1220791,Nd14Zn43Sn3,-0.387578465416667
mp-1220794,Nd3Ti12Bi13O48,-2.786861436710527
mp-1220795,Nb12Sn3Sb,-0.1952546015625014
mp-1220796,Na5SrNbAs4,-0.6132101392424247
mp-1220799,NbNi,-0.2034333584615382
mp-1220802,NaHSeO4,-1.4908187358519644
mp-1220806,Nb5Ni41B12,-0.3326600018965525
mp-1220810,Nb10(SnGe)3,-0.3183969993750004
mp-1220812,Nb12Tl(Te3As)4,-0.5250103672413796
mp-1220816,Nb2V3(Cu3S4)5,-0.9319244253125
mp-1220820,NaBi3(ClO2)2,-1.7742460576520005
mp-1220821,NaBi3(BrO2)2,-1.5936221009999998
mp-1220822,NaLaScNbO6,-3.42186413925
mp-1220823,NaBi3(IO2)2,-1.486856184
mp-1220826,NaLaF4,-4.012753330793334
mp-1220828,Nb4Pb3(O6F)2,-2.7480446610657148
mp-1220833,Pr9Ni24Sn49,-0.3722812390853655
mp-1220835,NdDyFe14C,-0.0361475699999988
mp-1220837,NaHSeO3,-1.5766071214106248
mp-1220843,Na8Al6Si6BrClO24,-3.0717112237665214
mp-1220844,Na9Sm(SiSe3)4,-1.016100838709936
mp-1220852,NaHo9(Si3O13)2,-3.7041393997023806
mp-1220856,Na8Al6Si6IClO24,-3.057309949962173
mp-1220859,NaAlSi3O8,-3.217361111538461
mp-1220862,Na6Al3Fe3(TeO6)4,-2.120245637375
mp-1220863,NaBeSi3HO8,-2.947211077044286
mp-1220864,Na8Al3Ga3Si6(ClO12)2,-2.893551411880869
mp-1220865,NaSm2Se3,-1.7286656631163193
mp-1220866,NaSn2Pd3,-0.4900502158333329
mp-1220867,NaTlO,-1.1876480237499998
mp-1220869,NaSrNb2O6,-3.0438985599166672
mp-1220871,NaAs3(PbO3)4,-1.80692486675
mp-1220879,NaSbSe2,-0.6318790986718752
mp-1220883,NaSbTe2,-0.4461733525000002
mp-1220886,NaAl3P2(HO3)4,-2.638582657232857
mp-1220888,NaSr2(SnAs)6,-0.4728709165555552
mp-1220890,Nd14Au51,-0.6345800078461541
mp-1220891,Rb2Sn4S9,-1.0084831502083342
mp-1220895,Na6B18Se17,-0.4475494720693592
mp-1220897,NaSrMg2F7,-3.80068698742394
mp-1220898,Pr32In3Rh19,-0.5825511344444452
mp-12209,MnB4O7,-2.762317137412376
mp-1220900,NaLa9(Ge3O13)2,-3.1690533472023814
mp-1220901,NaSm3Ti2(SbO7)2,-3.125857688295456
mp-1220908,NaSO3F,-2.3159090680108334
mp-1220909,NaTa4Bi5O18,-2.592264905267857
mp-1220912,NaPrS2,-2.1096041840625004
mp-1220913,NaV2Bi3O10,-2.0959566185937497
mp-1220914,Nb2Ni5Te6,-0.3406067707692317
mp-1220915,NaSmF4,-3.986531805515556
mp-1220924,NaPrTi2O6,-3.411473600749999
mp-1220926,Rb3Na3Sc2(MoO4)6,-2.4455003248026306
mp-1220927,NaTiSn(PO4)3,-2.7830328217063487
mp-1220934,Nb3Os2,-0.2396009669999993
mp-1220936,NaScSnO4,-2.7635579553571423
mp-1220937,NaU2F9,-4.137737677975832
mp-1220945,NaPr2Se3,-1.7281967870052088
mp-1220947,NaIn10CuS16,-0.950579990535714
mp-1220948,NaPrF4,-3.9692625063488887
mp-1220949,Na7Fe4P9O32,-2.5615936861950552
mp-1220951,NaTiPO5,-3.012052277477678
mp-1220955,NaSr2(FeAs)6,-0.4427789658888893
mp-1220958,NaTh2(PO4)3,-3.3484262267063496
mp-1220960,NaAl6Sb7(TeCl3)8,-1.3611818893095649
mp-1220967,NaLiCdS2,-1.2684842495833335
mp-1220968,NaNd2Se3,-1.7299677470052082
mp-1220971,Nd(GaFe)6,-0.2881034338461538
mp-1220972,NaLiZnS2,-1.3381681965833336
mp-1220974,NaSm9Si6(SO12)2,-3.538828986696428
mp-1220978,NaMnCuSe2,-0.5708137618685349
mp-1220980,NaNd(MoO4)2,-2.5754086912499994
mp-1220981,Na5H7(Se2O9)2,-1.527928055653382
mp-1220983,NaMo2(P2O7)2,-2.5824314231802727
mp-1220989,NaNd3Ti2(SbO7)2,-3.103594926022728
mp-1220990,NaH3(SeO3)2,-1.4338340235872913
mp-1220992,NaP2W7O25,-2.294123689811224
mp-1220996,NaP4(RuO7)2,-2.28018273032313
mp-1220997,NaNi2Mo2H3O10,-1.7348727290755557
mp-1221,V3Ge,-0.3375661337500002
mp-12210,YbP5O14,-2.661305893976192
mp-1221000,NaTaWO6,-2.676640974722224
mp-1221001,Na8Fe6P6(O8F3)3,-2.6105644588139363
mp-1221002,Na7Mn4Fe8(PO4)12,-2.5123835012698468
mp-1221010,NaPr9Si6(SO12)2,-3.524092041815476
mp-1221012,NaGdTi2O6,-3.4329503602500004
mp-1221015,NaMoAsO6,-1.967919460555555
mp-1221016,NaV3(PbO3)4,-2.120108048
mp-1221018,NaSr4(FeAs)10,-0.4787198716666671
mp-1221019,NaNb4Bi5O18,-2.435404758482143
mp-1221026,NaGd3Ti2(SbO7)2,-3.1301946819318185
mp-1221027,NaNi2H3(SeO5)2,-1.357503168780416
mp-1221029,NaPr9(Ge3O13)2,-3.0933721857738097
mp-1221030,Ni4Sn3,-0.2660761353571428
mp-1221031,NaNd9(Si3O13)2,-3.64359062375
mp-1221034,NaGdF4,-3.9604535227377777
mp-1221036,NaErF4,-4.016813181626666
mp-1221038,NaNi2H3(SO5)2,-1.770795464422778
mp-1221041,Na8Zr3Si16Sn(H4O13)4,-2.69700585930125
mp-1221044,Nd2InCuS5,-1.7196959342361116
mp-1221047,NaEr(MoO4)2,-2.579084615416665
mp-1221048,NaLiV2O6,-2.4103127049166657
mp-1221050,NaFe2Mo2H3O10,-1.9032061090755548
mp-1221072,NaSr11(PtO6)3,-2.5507668763888884
mp-1221073,NaCeS2,-2.0821188965625
mp-1221075,NaCaMgFe(SiO3)4,-3.074013387791666
mp-1221077,NaCaMgCr(SiO3)4,-3.133629437166667
mp-1221079,NaCaYCdF8,-3.681361131904444
mp-1221080,NaCeTi2O6,-3.4095422827499995
mp-1221081,NaDy3Ti2(SbO7)2,-3.1547461714772727
mp-1221090,NaCaMg2F7,-3.801971611363333
mp-1221101,NaBiSe2,-0.735342862421875
mp-1221102,NaBiTe2,-0.5377731637499998
mp-1221106,NaMg3In(MoO4)5,-2.3215538331666665
mp-1221111,NbFe,-0.1085648030769218
mp-1221116,NaCoP2HO7,-2.348576158292738
mp-1221117,NaCaGaSi2O7,-3.0250833211458343
mp-1221119,NaCa3Mg3Fe(SiO3)8,-3.207421906249999
mp-1221125,NaBiS2,-1.0773793378125007
mp-1221127,NaU4V3O20,-3.077485211964285
mp-1221137,Na4SeS,-1.1758938625781248
mp-1221141,Na5Br4Cl,-1.6805552058259998
mp-1221142,NaP4(W3O11)4,-2.3068018876112406
mp-1221143,NaLi4(H2N)5,-0.6527742488633329
mp-1221145,NaCr12Si8ClO28,-2.6319676540652006
mp-1221146,Na4Si2PbSe6,-0.8592982887740381
mp-1221147,Na5BrCl4,-1.995464667804
mp-1221151,Na4Sn(GeS3)2,-1.1185379868269234
mp-1221152,Na4TiP2O9,-2.7977029458370533
mp-1221153,Na4Sr2SiP4,-0.665012757056277
mp-1221154,Na4Sr2SiAs4,-0.6797824798484846
mp-1221155,Na4Sr2TiP4,-0.7700732229653678
mp-1221156,Na4Sr2TiAs4,-0.7926565803030301
mp-1221157,Na4Sc3In(SiO3)8,-3.199557017875
mp-1221158,Na4ScIn3(SiO3)8,-2.939809712625
mp-1221162,Nb19Fe20,-0.1086779033333329
mp-1221164,Na5U5O18,-3.232748262767857
mp-1221165,Na4H4PdPt,-0.342098485448
mp-1221168,NaCa10(PO4)7,-3.297484318913044
mp-1221169,Na4Ge2PbS6,-1.1500286368269232
mp-1221172,Na4TaAl3(PO4)6,-2.9446759450375946
mp-1221175,Na4SrTa5O15,-3.141772802216666
mp-1221178,Na7Sn12,-0.1799411968421053
mp-1221180,Na5Ca2Fe3(PO4)6,-2.6958361809107148
mp-1221182,NaCa2Nb8(BiO4)9,-2.568120713928572
mp-1221184,Na4P6PbO18,-2.602094884273399
mp-1221195,NdCd6,-0.2207115358333335
mp-1221198,Na4AgCl5,-1.8287075529633328
mp-1221202,Na4Br(ClO4)3,-1.1613129637390005
mp-1221206,Na4Ca2SiAs4,-0.6891184949999999
mp-1221207,Na4Ca2SiP4,-0.6910053058441558
mp-1221212,Na4Ca2SnP4,-0.6176336781168833
mp-1221215,Na3ThB24,-0.1860808655357136
mp-1221217,Na3LiV4O12,-2.3891847993333344
mp-1221219,Na3SrTa4O12,-3.1563476603333327
mp-1221224,Na3BrCl2,-1.92680812692
mp-1221225,Na3BrCl2,-1.9223676702533328
mp-1221240,Na4Al2GaSi3BrO12,-2.916118868913044
mp-1221246,Na3Y(Si2O5)3,-3.1809296836833325
mp-1221248,Na3B2PO5F4,-2.93684660941654
mp-1221250,Na3Ag(TeS3)2,-0.8377557005902775
mp-1221252,Na2TlHg,-0.1855621299999998
mp-1221255,Na4Al3Cr(P2O7)4,-2.848859623717533
mp-1221257,Na3YSi2O7,-3.057210784134614
mp-1221258,Na2ThF6,-3.864304320793333
mp-1221259,Na3CaMgCr3(SiO3)8,-3.0169952303333334
mp-1221260,Na4AlCr3(P2O7)4,-2.7254095889448062
mp-1221263,Na4Ca7MnSi12(HO9)4,-3.072752813204612
mp-1221266,Sc15(In5Rh2)4,-0.6061727884883715
mp-1221267,Na2TiTeO6,-2.3723878217500003
mp-1221271,Na3Be3Pb2F13,-3.1844065764509524
mp-1221274,Na4Ca7MnSi12(HO9)4,-3.0724672624233618
mp-1221280,Na3Sc2(PO4)3,-3.078762436285713
mp-1221283,Na3YC2(O3F)2,-2.678133456658095
mp-1221307,Na3Yb(PO4)2,-2.736631418248299
mp-1221310,Na2Sr3As4,-0.8638859713888887
mp-1221315,Na2Sr3P4,-0.8263549279761904
mp-1221317,Na2ScIn(SiO3)4,-3.068639283499999
mp-1221330,Na3Nb7P4O29,-2.9153168683845503
mp-1221336,Na3LiMg4(Si2O5)6,-3.1355762487499987
mp-1221342,MnNiP2,-0.5272403904495082
mp-1221344,Na2Zr(Si2O5)3,-3.2238311897395824
mp-1221345,Na2PHO4,-2.387946298398928
mp-1221346,Na2Nd4NCl9O,-2.626803919880589
mp-1221350,Na4Co9(MoO4)12,-1.9048696000684933
mp-1221355,Na2GeTeO6,-1.96113170775
mp-1221356,MnNiP2O7,-2.379892209228004
mp-1221357,Na3YbC2(O3F)2,-2.4959479008247625
mp-1221365,Na2MnCdFe(PO4)3,-2.4803403793164733
mp-1221376,Na2MnFeF7,-2.9406040612677424
mp-1221381,Na3Th6ZnF29,-4.1427531979361545
mp-1221385,Na2BrCl,-1.838206093315
mp-1221387,MoW,0.0001302100000017
mp-1221390,Na2LaCeTi4O12,-3.42822875625
mp-1221393,MoWC2,-0.1031829374999997
mp-1221396,Na(NbSe2)2,-0.9301864977678572
mp-1221398,Na2Zn11(MoO4)12,-2.0010689034931506
mp-1221403,Na(WO3)3,-2.183622777403846
mp-1221415,Na(Ti3Se4)2,-1.1766129415833335
mp-1221421,Na(Nb3S4)2,-1.4462526833333338
mp-1221424,Na2(TaSe2)3,-0.9443696935511364
mp-1221427,Na(V3S4)2,-1.3674197473333332
mp-1221428,Na2Al2B2O7,-2.959347430032052
mp-1221434,Na2(TaS2)3,-1.5645105144318183
mp-1221436,MoCl6,-1.2373758699371429
mp-1221438,Na(CoO2)3,-1.4543039597499992
mp-1221440,Na(WO3)2,-2.173618430277778
mp-1221442,MoPd4,-0.0534500999999998
mp-1221444,Na2BrClO6,-1.110814920576
mp-1221446,N2O,-0.4488656178366668
mp-1221451,Na2Al2B2O7,-2.959248146955129
mp-1221454,Na(VSe2)2,-0.8110029591964282
mp-1221455,MoCl2O,-1.6026057319425
mp-1221459,Na2Ca(Ge3O7)2,-2.28051563402174
mp-1221460,Na2(NbS2)3,-1.5737521303409094
mp-1221463,Na10NbGaAs6,-0.4803914416666666
mp-1221470,Na2CaMg5Si8(O11F)2,-3.255785024038667
mp-1221482,Na2(NbSe2)3,-0.9514881653693188
mp-1221485,Mo2SeS3,-1.1421757486197908
mp-1221487,MoCl6,-1.2376314546990477
mp-1221497,MnZnTe2,-0.2758712386637931
mp-1221499,Mo2RuSe4,-0.5764298584821432
mp-1221500,MnZnSe2,-0.5411570023356687
mp-1221503,MnZnSe2,-0.5394033123356685
mp-1221504,Mo3PdPtN,-0.3536849287299996
mp-1221505,MnZnTe2,-0.2681700236637931
mp-1221508,Na11TiNb2Si4P2O25F,-2.8714631112952795
mp-1221515,MnZn4Se5,-0.6500094311373925
mp-1221519,Mo2CN,-0.3609214755949992
mp-1221520,MnZnCdTe3,-0.3354668474425288
mp-1221527,Na2Mg3Zn2(Si2O5)6,-3.0788585736224485
mp-1221531,Mn2SbTe,-0.0474295560775868
mp-1221546,Na16Al12Si12I3ClO48,-3.040666237481087
mp-1221555,MnVP2,-0.6820770729495074
mp-1221557,MnZn(CrS2)4,-1.1083415871182265
mp-1221560,Na19Zr11S30,-1.7790749243125
mp-1221561,MnZn3(CrSe2)8,-0.5765586436483982
mp-1221562,MnZn(GaSe2)4,-0.6023387766717982
mp-1221565,MnTlCuSe2,-0.3510862408685348
mp-1221569,MnZn(GaSe2)4,-0.6020726566717981
mp-1221575,MnZn4O5,-1.829865527936518
mp-1221591,MnHg2Te3,-0.1356291149425287
mp-1221602,MnZn(FeO2)4,-1.9350302204010827
mp-1221619,MnFeSi2,-0.480581403663793
mp-1221626,MnFeP2,-0.5949809341995076
mp-1221636,MnCrB2,-0.485745141580459
mp-1221650,MnCdTe2,-0.2698396999137928
mp-1221653,MnNb4(CS2)2,-1.0468655892868333
mp-1221656,MnAl2Ni,-0.4681651199137935
mp-1221657,Mn5V4O12,-2.2951971546702787
mp-1221662,MnAl2Cr3,-0.1633434032758624
mp-1221664,MnCd2Te3,-0.3358194216091957
mp-1221667,MnCd3Te4,-0.3751143399568968
mp-1221677,MnH6(NCl)2,-0.8710466147868339
mp-1221683,Mn6PtRh,-0.1478915609913791
mp-1221692,MnCuSe4,-0.2003699881716958
mp-1221696,MnFePd6,-0.1841686012068963
mp-1221699,MnB4W3,-0.390819676623563
mp-1221710,MnCr2(SeS)2,-0.7881847822275247
mp-1221714,MnAl24Cr,-0.0841508253713527
mp-1221728,MnCrPt6,-0.2940328062068964
mp-1221731,Mn3CrP4,-0.5926711791564045
mp-1221737,MnFe3P2,-0.4983696361330045
mp-1221748,Mn8Nb3Al,-0.1900357747701164
mp-1221749,Mn3FeP4,-0.6016390429064042
mp-1221753,MnCr4CdSe8,-0.5423396963146548
mp-1221762,MnCd4O5,-1.4942397064365174
mp-1221780,Mn3FeAs4,-0.2485240836206896
mp-1221783,MnAg2Sn3S8,-0.7419777493801318
mp-1221784,Na10B18H6O35,-2.57073011747058
mp-1221789,Mn3CrAs4,-0.2499101661206904
mp-1221792,MnCd2TeO6,-1.6779376465615166
mp-1221797,Mn3B4W,-0.4378788065373573
mp-1221799,Mn3Cu2NiO8,-1.5430488722746796
mp-1221800,Na2Mg3(MoO4)4,-2.405947565199999
mp-1221802,Mn2P2O7,-2.593902791556656
mp-1221804,Mn3NiP2,-0.5378477251847293
mp-1221806,Na2Ca2(SiO3)3,-3.171467965911458
mp-1221813,MnCr4CdS8,-1.0764228103325126
mp-1221818,Mn2V2O7,-2.3290231263618506
mp-1221819,Mn2SnSbPd4,-0.3704134217887933
mp-1221820,Mn2InSnPd4,-0.4112617099137923
mp-1221832,MnCdCu4(SnSe4)2,-0.3473566599003233
mp-1221836,Mn3Cd3(TeO6)2,-1.739066348092276
mp-1221842,Mn3B4Mo3,-0.4245107552298862
mp-1221844,Na2CaPb3(CO3)5,-2.053807920913461
mp-1221856,MnAl2Sb2(PO4)6,-2.646813630915536
mp-1221858,MnNb4FeO12,-2.842393771423066
mp-1221866,MnCoSb,-0.0979022936350576
mp-1221876,Mn3Cr3P2,-0.3649948488885464
mp-1221877,Mn9Zn3O16,-2.002405507519162
mp-1221886,MnCd(GaSe2)4,-0.590014044886084
mp-1221898,Mn2GeRu,-0.1904031998275872
mp-1221899,Mn2FeSbO6,-1.9978853303730344
mp-1221900,Mn3V17Si12,-0.5663778893426725
mp-1221906,Mn2As2O7,-1.91567625045276
mp-1221909,Mn2Cr3GaS8,-1.045946956736454
mp-1221916,Mn3V2O8,-2.282225303731708
mp-1221921,MgZnCo,-0.0701132744444444
mp-1221926,MnNb8(FeO8)3,-2.822723264183755
mp-1221928,MnCu2Sn3S8,-0.7775129817610846
mp-1221930,Mn9Al8Fe3(SiO4)12,-2.941986052319207
mp-1221933,Mn3Zn9(PO4)8,-2.4241753822195564
mp-1221936,MgMnTe2,-0.4811176582471264
mp-1221942,Mn2Bi3Sb3O14,-1.9221840878968344
mp-1221951,MgZnCu,-0.1992769911111113
mp-1221952,MgTi2NiO6,-2.957445565333333
mp-1221953,MgNiO2,-2.0556498814583337