material_id,pretty_formula,formation_energy_per_atom
mp-23751,CsMgH3,-0.3120317214248734
mp-23752,Cs2MgH4,-0.2928983333822
mp-23758,KNa(BH4)2,-0.4567841586355552
mp-23763,SnH8(NCl3)2,-1.0548635225458824
mp-23764,Mg3Si2H4O9,-2.6337298058738887
mp-23768,AlZnH4O2F5,-2.4408103194561543
mp-2377,GaMo3,-0.1654044737499997
mp-23774,K2LiAlH6,-0.3609468284386665
mp-23776,BeH8(ClO2)2,-1.5501328746986671
mp-23778,H4CN2O,-0.794281971311249
mp-23779,K3H(SO4)2,-2.229839962062143
mp-23780,Na3H(SO4)2,-2.1852738348121425
mp-23781,Rb3H(SO4)2,-2.2263804469550004
mp-23787,Na2ZnH8(SO6)2,-1.8008193454084005
mp-23789,Mn(HO)2,-1.628366033071034
mp-2379,CoSi2,-0.470033564999999
mp-23791,B(HO)3,-1.927342710420476
mp-23792,NaCa2Si3HO9,-3.124815669679375
mp-23794,H4NF,-1.1775195138416663
mp-23797,LiH6ClO7,-1.2759448683597785
mp-23798,H4OF2,-1.7165585343728564
mp-238,MnPd,-0.2015563698275864
mp-23800,KHSO4,-2.0849404051421425
mp-23801,K2H2IrCl5O,-1.5494966309809086
mp-23804,Mg2FeH6,-0.3887608998207399
mp-23806,BaAsH3O5,-2.011859496836
mp-23808,KScBP2HO9,-2.895723332223079
mp-23809,RbScBP2HO9,-2.892922454856412
mp-2381,ErRh,-0.9409557949999998
mp-23810,BaAsHO4,-2.288289090785
mp-23818,BaLiH3,-0.5976567785053334
mp-23819,Al2P2H9NO11,-2.0980347086341147
mp-23827,Sr7(H6Cl)2,-0.9755246455536506
mp-23828,Sr7(H6Br)2,-0.8701022481003168
mp-23831,NdHSO5,-2.6348150725618744
mp-23835,HgH12C2(Br2N3)2,-0.5643061697087995
mp-23839,K2VH2OF5,-2.720321730494545
mp-2384,LaP,-1.5682741317857145
mp-23843,LiHSeO3,-1.6364852318967358
mp-23844,HgHOF,-1.384411047765
mp-23846,KHF2,-2.5525795647500003
mp-2385,TaCr2,-0.1118242549999995
mp-23850,NaH2N,-0.5294707430300001
mp-23852,Na3H5(CO4)2,-1.788152063783333
mp-23853,CoH4(ClO)2,-1.3130685531666666
mp-23856,LiHO,-1.8512098088455555
mp-23857,CoCuH18N6Cl5,-0.7731710547819354
mp-23859,CaHCl,-1.7442072972933331
mp-23860,SrHCl,-1.8041786378488889
mp-23861,BaHCl,-1.82018348896
mp-23862,BaHI,-1.265197632873333
mp-23866,H2SeO4,-1.1565139717262498
mp-2387,Th2Zn,-0.1568835633333343
mp-23870,NaH,-0.2667172818100001
mp-23872,Ca3Al2H6S(OF)8,-2.906449580334464
mp-23876,H8S(NO2)2,-1.2139230241230006
mp-23877,NiH14SO11,-1.466833913890926
mp-23879,Ca(HO)2,-2.234217016948
mp-23883,Be2BHO4,-2.747036345712916
mp-23884,SrGe(HO2)2,-2.236808567363333
mp-23888,MgTe(H4O3)3,-1.5578723273053623
mp-23891,NaHO,-1.61050863329
mp-23894,LiAs(HO2)2,-1.7654974376758323
mp-23895,MnPH2O5,-2.132620953908511
mp-23896,LuHCl,-1.6259409839599996
mp-23897,Rb3H(SeO4)2,-1.6790933339862495
mp-239,BaS3,-1.5552812010937505
mp-2390,YbP,-0.7339616676190479
mp-23902,PH3O4,-1.945239230241428
mp-23904,BaH4O3,-1.8597081566537497
mp-23906,LiH6NO6,-1.4089604313047617
mp-23907,H2,4.440892098500626e-16
mp-2391,YbPd3,-0.6992448941666662
mp-23910,CrHO2,-2.036023797155
mp-23911,MgH20S2(NO7)2,-1.5016517548523938
mp-23912,NiH20S2(NO7)2,-1.3841904210489746
mp-23918,NaGaH4,-0.1983285049133331
mp-2392,Th2Se5,-1.5439710198883927
mp-23929,ZnH8(NO5)2,-1.270029913272381
mp-2393,YTl3,-0.2512592308333334
mp-23930,H4CSN2,-0.4886134193581242
mp-23931,LiPH2O3,-2.011707065532584
mp-23933,AlH3,-0.1123318752149997
mp-23934,PH6NO4,-1.5559117077226194
mp-23940,NaHO,-1.610428414956667
mp-23942,KPHNO2,-1.872136182234127
mp-23947,Cs3MgH5,-0.282077894747382
mp-23948,Rb3MgH5,-0.2743306068259257
mp-2395,Sb3Rh,-0.4024927687500002
mp-23954,Na2H2Pd,-0.325237843448
mp-23955,CuH2SeO5,-1.1320652656481949
mp-23956,K2MgH4,-0.3331704576876184
mp-23958,YH12(ClO2)3,-1.6440126658660608
mp-23959,KP(HO2)2,-2.237465918601428
mp-2396,HoCo2,-0.1894347183333344
mp-23961,Na3AsH18Se4O9,-1.222855037165285
mp-23966,MgH2SeO5,-1.7424380521296752
mp-23967,CoH2SeO5,-1.3365102695370834
mp-23968,NiH2SeO5,-1.253704815648194
mp-23969,ZnH2SeO5,-1.3933616734259724
mp-23979,K3H(SeO4)2,-1.677632669093393
mp-2398,ScSn2,-0.4798658699999999
mp-23980,Cs3H(SeO4)2,-1.683514500507186
mp-23983,V2NiP2(H4O7)2,-1.9714313464297348
mp-23984,GaH18C3(N3F2)3,-1.0661348374654045
mp-23985,LiH6BrO7,-1.1416337828091112
mp-2399,YHg,-0.5165031716666668
mp-23995,Al2P3(HO3)3,-2.4532710898720165
mp-23996,BeH8SO8,-1.750527160115833
mp-2400,NaS,-1.1637634553125
mp-24001,NaZn2P2HO8,-2.3772782586259185
mp-24006,MgH12(BrO6)2,-1.2578456013619748
mp-24007,Rb2HBrO,-1.6480096949739995
mp-24008,K2FeH2Cl5O,-1.7016988623445457
mp-24009,KCr3H6(SO7)2,-1.997485423787308
mp-24011,CeHSe,-1.4132978936545832
mp-24012,HoHSe,-1.4811273603212498
mp-24013,CrCuH18N6Cl5,-0.8183212862335483
mp-24015,Cd2H3ClO3,-1.439403960041111
mp-24018,CaZnAsHO5,-2.188340193041111
mp-2402,NaSi,-0.0162073412499998
mp-24022,RbH3(SeO3)2,-1.4516090181706245
mp-24029,Na2H10SO5,-1.3713672616986108
mp-2403,YPt3,-0.9692530233333336
mp-24030,ZrP2(HO3)2,-2.536954024716623
mp-24034,K3AlH6,-0.2940517765719999
mp-24036,Rb2MnH2OF5,-2.559049747732289
mp-24038,K2CuH12(SO7)2,-1.6687441844577424
mp-2404,CaAl2,-0.3299132750000003
mp-24041,MgH2SO5,-2.174879808883148
mp-24044,CaH12(BrO3)2,-1.4744308707590472
mp-24046,NaAlH24(SO10)2,-1.6552917135547915
mp-24050,LaCrHO5,-2.4200134665462505
mp-24051,ErHCl,-1.6554753906266668
mp-24052,CaMgNiH4,-0.492175076830476
mp-24053,AgH2ClO5,-0.8109655193148152
mp-24058,AgBH2OF4,-2.214494491935185
mp-2406,Mg5Pd2,-0.4754557120238095
mp-24065,CaB2H10O9,-1.937797998823484
mp-24066,SrHClO,-2.497126829949167
mp-24069,MnH2(SO4)2,-1.9223277476234744
mp-24071,MnH6(SO4)4,-1.80806188517908
mp-24072,AgH5S2O9,-1.581200515525491
mp-24074,Dy(HO)3,-2.3186265899442864
mp-24081,ScHCl,-1.6090825572933325
mp-24082,Ta2H,-0.1984715528733325
mp-24084,KH,-0.2649394608099999
mp-24088,NiH8(ClO2)2,-1.2732972328653327
mp-2409,Ni5Sb2,-0.1703983457142856
mp-24090,BaH4(IO)2,-1.523724812997778
mp-24091,GaH4NF4,-1.8787371786620004
mp-24092,GdH2,-0.7624351990799999
mp-24095,PrH2,-0.7075902974133333
mp-24096,NdH2,-0.723815632413333
mp-24097,Mg3Si2H4O9,-2.633982437818333
mp-241,CdF2,-2.505521514126667
mp-2410,SrAg5,-0.1859636855555552
mp-24104,LiAlSi2H2O7,-2.803606444050513
mp-24108,RbCrH24(SO10)2,-1.5990052054818755
mp-24109,NaP(HO2)2,-2.1969108949451783
mp-24111,Rb2CoH12(SO7)2,-1.7148357731351616
mp-24112,Rb2ZnH12(SO7)2,-1.739945098619032
mp-24113,SnH8(NF3)2,-1.6865878371094112
mp-24117,CrFeH18(NF)6,-1.2285097812993744
mp-24118,H10SO8,-1.5196897928592108
mp-24119,Ca2HN,-0.924674848375
mp-24123,Rb(BH)6,-0.450147717247692
mp-24124,NdH2ClO2,-2.4545386946666667
mp-24126,Sr3Al2(HO)12,-2.1621450040841377
mp-24128,ReH4NO4,-1.492253408686001
mp-24129,MnH4(BrO)2,-1.2624288108439083
mp-24131,GdH3,-0.6905099377149995
mp-24133,K2NiH12(SO7)2,-1.6800242110706454
mp-24135,AlH18Ru(NF)6,-1.2859949509868749
mp-24136,Cs(BH)6,-0.4591340472808483
mp-2414,SO3,-1.754790775885417
mp-24141,CsHSeO4,-1.543399585199255
mp-24142,MgAlH4O2F5,-2.717629254327949
mp-24144,Na5ScH4(C2O7)2,-2.110219368820715
mp-2415,DyTl3,-0.2340967799999997
mp-24151,DyH2,-0.7873806990799999
mp-24152,HoH2,-0.7893155124133333
mp-24153,LaH2,-0.7272055174133332
mp-24154,NbH2,-0.3228684524133338
mp-24155,ZrH2,-0.6456001657466661
mp-24157,PH8N2O3F,-1.4285158796487625
mp-2416,YF3,-4.449770334850833
mp-24160,BH3NF3,-2.020078703455417
mp-24161,TiH2,-0.5836860057466661
mp-24164,CuH2(SeO3)2,-1.2073798831297724
mp-24165,Li2H2SeO5,-1.7091615564167086
mp-24170,CaPH3O4,-2.2319938054923805
mp-24171,SrPH3O4,-2.23722173512201
mp-24172,H2SO4,-1.6786027554092855
mp-24174,V2CoP2(H4O7)2,-2.0053327432815884
mp-2418,PdSe2,-0.2829484090624999
mp-24181,CsGaP3HO10,-2.5462121796728328
mp-24182,Rb2ZnH12(SeO7)2,-1.4942406377621775
mp-24192,ErH2,-0.7883337857466662
mp-24193,NaH3O2,-1.5253732599349998
mp-24196,Tl2CuH12(SO7)2,-1.5346783370061297
mp-24197,Rb2CuH12(SO7)2,-1.66864843216742
mp-24198,CrHgH18N6Cl5,-0.8310485179270962
mp-24199,LiHF2,-2.5932900344166665
mp-242,SrB6,-0.4496295009523803
mp-2420,PW,-0.3690086167857132
mp-24202,Th4H15,-0.5819293465421052
mp-24204,CaHI,-1.1677993845400003
mp-24205,SrHI,-1.225546973428889
mp-24208,CrH2,-0.0303713090799995
mp-24212,RbP(HO)2,-1.6159850955519035
mp-24214,KPH3O4F,-2.1927020791121428
mp-24215,ScH3Br3N,-1.2160041444674996
mp-24216,ZnHgAsHO5,-1.476267858596667
mp-24217,Sc2P3(HO3)3,-2.6505339192837813
mp-2422,ErGa2,-0.6099253299999999
mp-24220,Cs2FeH12(SO7)2,-1.7436666344532927
mp-24227,H8Pt(NCl3)2,-0.918633438428235
mp-24229,Na2CaH10C2O11,-1.800236305959616
mp-2423,US,-1.5789157965624998
mp-24230,HCNO,-0.9689243143125004
mp-24237,ScH2,-0.7666489907466664
mp-24239,K(BH)6,-0.4440433626707692
mp-2424,LaZn5,-0.3138416683333333
mp-24240,K3B12H12I,-0.5097844102657147
mp-24241,Rb3B12H12I,-0.5197319228907139
mp-24250,Mn2H2SO6,-1.9500987880995764
mp-2426,LiAg,-0.2217764399999997
mp-24262,KP(HO2)2,-2.2308429282889284
mp-24263,KP(HO2)2,-2.234646834851428
mp-24266,Ca2BHN2,-1.1945659427855553
mp-24267,ZnP4H16(NO8)2,-1.7570626369734792
mp-24286,ZrH2,-0.6524001157466662
mp-24287,CrH,-0.0449807693099995
mp-24288,LuH2,-0.77671540908
mp-24290,HS7N,-0.534302488097222
mp-24291,ThH2,-0.5783572724133332
mp-24292,Sr2H6Ru,-0.6851223338948143
mp-24294,HgHClO4,-0.8001156634828571
mp-2430,ZrGe2,-0.5314534683333333
mp-24300,CoP4H16(NO8)2,-1.744054862101684
mp-24302,CdAs2HF13,-2.40435162377
mp-24303,Mg3P4H48(NO15)2,-1.568066860808111
mp-24308,AlSiH9C3Cl2O,-0.8898865538441189
mp-2431,ErTl3,-0.1992228624999996
mp-24312,Sr(H9O5)2,-1.5233136752354024
mp-2432,CaMg2,-0.1103835197222219
mp-24335,YH5(SeO4)2,-1.784116226788802
mp-24336,MgH4(ClO)2,-1.701659565203704
mp-24337,MgH2Cl2O,-1.8442286443072229
mp-24338,Sr5As3H,-1.065792960772592
mp-2434,SrTl,-0.4309708483333332
mp-24340,K3GeH3S3O2,-1.4353229168112496
mp-24341,CsBeH3,-0.1926008707582067
mp-24347,Be2CoH20N2(O3F4)2,-1.7444148589533324
mp-24348,BiP4HO12,-2.4303774251614274
mp-2435,HoCo5,-0.1180224741666672
mp-24355,KBe(H2N)3,-0.6904358520440907
mp-24356,CdH4NCl3,-1.0809222187933334
mp-24361,CaP2(HO2)4,-2.3654821211081907
mp-24366,K2ZnH12(SO7)2,-1.7400437659093548
mp-2437,IrF3,-1.6316127146425
mp-24375,TlH4NCl4,-0.9849797919900002
mp-24381,H5ClO2,-1.2840659386075002
mp-24383,Mg(H2N)2,-0.7141789540283331
mp-24384,CaH8(ClO2)2,-1.666273054365334
mp-2439,ZrNi5,-0.3176676766666671
mp-24390,CaPHO4,-2.832011346741632
mp-24402,CaAlSiHO5,-3.112644185263334
mp-24405,LiCd4Ge5HO15,-1.924763053424487
mp-24409,PH4I,-0.1882977363419045
mp-24410,CoH4(BrO)2,-1.0853642868866666
mp-24411,K2LiAlH6,-0.3517317284386664
mp-24412,K2NaAlH6,-0.327918695272
mp-24413,Na2LiAlH6,-0.3085539043386663
mp-24422,CaHBr,-1.3884465812066666
mp-24423,SrHBr,-1.4404049817622218
mp-24424,BaHBr,-1.476472067873333
mp-24426,HgH2SeO5,-1.1246157984259737
mp-24428,KH2N,-0.5174955456549997
mp-2443,DyHg,-0.4863471650000002
mp-24430,CdCoH18N6Cl5,-0.8325780409512902
mp-24436,Ca5As4(HO2)10,-2.154572271697436
mp-24438,K2MgH12(SO7)2,-1.8386231387588168
mp-2444,GaRh,-0.6927199599999989
mp-24440,Na3SbH18S4O9,-1.3171972899688569
mp-24445,Nd2H16S3O20,-1.950302581275488
mp-24447,FeCoH18(NCl)6,-0.8255732194218748
mp-24452,CaP2H6O7,-2.007256255788304
mp-24460,MgH6(SO4)4,-1.8924279687982712
mp-24463,H3SO4F,-1.7516759255750003
mp-24465,GaP3(HO5)2,-2.376319827372144
mp-24468,H8S(NO2)2,-1.2212240622896673
mp-24469,CaAl4Si2(HO6)2,-3.1440332222495235
mp-24473,BePH4NO4,-1.9162625502664936
mp-2449,NbRh3,-0.5193004324999997
mp-2450,CaSn,-0.6558447924999999
mp-24500,ZnH12SeO10,-1.3816236668034894
mp-24502,ZnH2(SO4)2,-1.830763484883846
mp-24504,H2,4.440892098500626e-16
mp-24507,Na6Zn3P4H6O19,-2.2381437145988343
mp-24508,ZrH3NF4,-2.533882013944444
mp-24509,CdH4(BrO4)2,-0.9097220954653332
mp-2451,YAl3,-0.4340429616666667
mp-24516,Co7P6(HO6)4,-2.1480396590465505
mp-24517,Rb2CaH4,-0.4011647120685713
mp-2452,P2O5,-2.4497842033418373
mp-24522,CuH2SO5,-1.5569909612905544
mp-24523,CsAlH24(SeO10)2,-1.5042877447291356
mp-24534,CaH4SeO6,-1.7504785782769787
mp-24546,MgH2(SeO4)2,-1.5108599573277557
mp-24547,ZnH2(SeO4)2,-1.262437712840577
mp-2455,As2Os,-0.2193114983333342
mp-24550,MnAsH2O5,-1.708714149900575
mp-24554,AlH18C3(N3F2)3,-1.1609900451343234
mp-24555,MnTl2H2OF5,-2.180297254777744
mp-24565,BaHClO,-2.4446430601575004
mp-24570,Be3As2(H2O5)2,-2.050888526683158
mp-24574,NdH5(SeO4)2,-1.7749102189242194
mp-24577,NiSnH12(OF)6,-1.7860627076184612
mp-24578,MgH10(SeO5)2,-1.520028354640036
mp-24589,K2HBrO,-1.671578738174
mp-2459,YbIn,-0.4984289333333334
mp-24595,Ca2B5H2ClO10,-2.7956568132333333
mp-24598,BaVP2(H2O5)2,-2.39497053231238
mp-246,TiF3,-3.693128742142499
mp-24606,Rb2MgH8(CO5)2,-1.8256727421649264
mp-24608,K2AlH2OF5,-2.9452079227672727
mp-2461,CaGa4,-0.3651758509999997
mp-24610,LiP(HO2)2,-2.2415284790597623
mp-24614,BeH8(NF2)2,-1.6596394146486668
mp-24617,RbGdH2S2O9,-2.408101721816001
mp-24618,AlH10N2OF5,-1.7948327434557891
mp-24619,FeH10N2OF5,-1.5605861193768416
mp-2462,PrCu5,-0.1482280758333332
mp-24620,MgMoH2O5,-2.115102267424815
mp-2463,LuFe2,-0.1725271983333331
mp-24640,ErH3(SO4)3,-2.1775759496834213
mp-24646,NaAlBP2H3O10,-2.531392441046456
mp-24648,RbFeBP2HO9,-2.5175200321897457
mp-2465,DyPt3,-1.00745912
mp-24650,YH2,-0.7990425135244443
mp-24654,KZnP2H5O9,-2.0926620033051586
mp-24656,YH3(SO4)3,-2.173438060122017
mp-24657,ZnBP2H4NO8,-2.078011800725658
mp-24658,SmH2,-0.7505692601911106
mp-24659,UH3,-0.3776582527149994
mp-2466,ErAu2,-0.880366113333333
mp-24662,Rb4Mg3H10,-0.3164642315411762
mp-24664,ZnH8C2N4(ClO)2,-0.9281723196052628
mp-24668,CsHF2,-2.536445435982759
mp-24674,Be3P2(H2O5)2,-2.463597049427519
mp-2468,ErHg,-0.4851590849999998
mp-24683,RbZn2P2HO8,-2.395566036661633
mp-24688,Rb2NiH12(SO7)2,-1.6918786966835486
mp-2469,CdS,-0.9709456665624998
mp-24694,Zn(H2N)2,-0.5109554910521429
mp-2470,DyS,-2.3217049665625007
mp-24710,VBP2H5NO9,-2.115473794984536
mp-24712,PH5NO3F,-1.6774707012719483
mp-24719,NiH,-0.1119277393099995
mp-2472,SrO,-3.084744533958333
mp-24721,RbH,-0.2236737380599995
mp-24722,HRh,-0.0304277393099994
mp-24723,TaH2,-0.1932965590800002
mp-24724,TbH2,-0.7835562857466662
mp-24726,TiH2,-0.5854989924133326
mp-24727,TmH2,-0.7870249301911111
mp-24728,VH2,-0.3057588590799997
mp-24729,RbGa2P2H5O11,-2.162904931142517
mp-2473,Re3As7,-0.0765171559999998
mp-2474,YAg,-0.3300651933333327
mp-24741,ScH3NCl3,-1.6258293903775
mp-24742,K2MgH8(SO6)2,-1.947322993481733
mp-24747,Na3H6Rh,-0.4174250034220002
mp-2475,SmAg,-0.277573883333333
mp-24757,AlBP2H5NO9,-2.236795391431903
mp-24761,RbGaBP2HO9,-2.572046735356413
mp-2478,NbSi2,-0.550523385555555
mp-24796,Rb3B12H12Br,-0.5404654877121422
mp-24798,Rb3B12H12Cl,-0.5719640671142859
mp-24799,Cs3B12H12Cl,-0.5851305275176105
mp-2480,OsSe2,-0.1773446348958328
mp-24805,LaNiSnH2,-0.6362723274480004
mp-2481,Mg2Cu,-0.1210052055555556
mp-24816,K2Cr2Cd(H2O5)2,-1.7376120106831574
mp-24817,LiBeH3,-0.3132645998386664
mp-24818,LiBeH3,-0.310025456505333
mp-24822,Na5Al3H14,-0.2503036836672724
mp-24827,KVBP2HO9,-2.6360140455564127
mp-24828,BaCoBP2HO9,-2.654406221689746
mp-24831,DyH4I3O11,-1.4601303938542107
mp-24835,K2MgCr2(H2O5)2,-1.917052654016492
mp-2484,SmSn3,-0.474287498333334
mp-2486,UC2,-0.1123749600000003
mp-2489,UC,-0.1247222849999989
mp-2490,GaP,-0.4086167242857135
mp-2491,ErSe,-1.6873461611718747
mp-2493,CeN,-1.6904812936900004
mp-2495,PrS,-2.3473782640625
mp-2496,Cs4Sn23,-0.1812041215453385
mp-2497,GdZn,-0.3598592874999999
mp-2499,BaSi,-0.4224301024999994
mp-25,N2,8.881784197001252e-16
mp-2500,AlCu,-0.2134279480000003
mp-2502,TmCd,-0.3222187466666666
mp-2503,Pd7Se4,-0.2651089217613634
mp-2504,RbZn13,-0.0476440705357144
mp-2507,GaS,-0.9834717528125
mp-2509,ThRh3,-0.7370315774999989
mp-2510,ZrHg,-0.1695497450000003
mp-2512,AsPd5,-0.2729504850000002
mp-2513,As2Pt,-0.5180595558333329
mp-2514,Mg3P2,-0.6686593929285714
mp-2516,YZn,-0.3662053491666666
mp-2517,Ca2Si,-0.4628475391666669
mp-252,BeTe,-0.3590326225
mp-2520,TmSb,-1.0603066491666668
mp-25203,VPO5,-2.502928920331632
mp-2522,LuHg,-0.4716847399999997
mp-25234,CoO2,-1.1615260991666656
mp-25237,Mn(PO3)3,-2.509901455390727
mp-2524,NdGa2,-0.6929422333333335
mp-2525,PrAg,-0.2442859091666669
mp-25250,MoP2O7,-2.5478648780892863
mp-25265,VPO5,-2.5086354606887755
mp-25266,Mo2P2O11,-2.3159221122261897
mp-25279,V2O5,-2.2952438494642857
mp-25280,V2O5,-2.2862880155357144
mp-2529,PrRh2,-0.6479759566666665
mp-25294,VP2O7,-2.634496579089285
mp-253,ScCo2,-0.3518902516666671
mp-2530,Li2Te,-1.0374044277777774
mp-25305,Y2Ti2S2O5,-3.3321593508333325
mp-25310,Fe(PO3)3,-2.5092230361126373
mp-2532,PrTe,-1.4376787125000003
mp-2534,GaAs,-0.350102595
mp-2536,Ni2B,-0.289929522777778
mp-2538,Y5Si3,-0.7210326433333334
mp-2540,VTc,-0.372973945
mp-25407,LiFePO4F,-2.621161855178512
mp-2541,SmTl,-0.3480063966666664
mp-25410,LiMnPO4F,-2.644683478380408
mp-2542,BeO,-3.110502470625
mp-25423,LiVPO4F,-2.8473919958035125
mp-25432,PWO4F,-2.5444616949659187
mp-25436,TiPO4F,-3.1759078985373463
mp-2544,Zr2Be17,-0.2372509028947366
mp-25440,VPO4F,-2.710067388537348
mp-2545,YbHg,-0.6378252283333332
mp-25469,AlCl3,-1.951326073695
mp-2547,YbPd,-0.8540106933333336
mp-255,NaHg,-0.2523076587499999
mp-2550,NdTe2,-1.2558919250000002
mp-2551,DyCo5,-0.1116856108333337
mp-2554,Al3V,-0.2885217524999994
mp-25576,Li(MoO2)2,-2.091104032380952
mp-2558,SmMg,-0.1017570833333332
mp-2563,CeSe,-1.8146893286718744
mp-2567,V3Si,-0.4646018599999983
mp-257,DyIn,-0.4490581750000002
mp-2576,Sr2Ge,-0.534207853611111
mp-25773,Mn8Cl3O10,-1.942680342961972
mp-2578,NiTe2,-0.2238974533333332
mp-2580,NbB,-0.7693422516666661
mp-2582,TiSi2,-0.5553111599999987
mp-2583,TiRh,-0.7544908699999997
mp-2584,TbFe3,-0.0542286358333328
mp-25840,LiTi2(PO4)3,-3.0301887891600523
mp-2585,Sr5Sb3,-0.9968841891666664
mp-259,AlMo3,-0.2414685224999999
mp-25908,Sn(PO3)4,-2.497997273046218
mp-2591,Ti3O,-1.574067229062499
mp-2592,Si2Mo,-0.4995861933333323
mp-2593,AlNi3,-0.4334371350000001
mp-25946,Sb2P5O16,-2.3998603992546585
mp-25977,LiFe(PO3)4,-2.584677286580688
mp-2598,Ta5Sb4,-0.1626375799999996
mp-25983,LiMo(PO4)2,-2.5457080376091263
mp-25987,LiMo(PO3)4,-2.6045494489418
mp-2599,NdN,-1.544031111189999
mp-26,La,0.0
mp-260,CrB,-0.5199570116666656
mp-26001,LiNi(PO3)3,-2.461825489545068
mp-26003,LiFe(PO3)3,-2.590064633830782
mp-26009,LiMo2P2O11,-2.4115966050037203
mp-26019,LiMn(PO3)3,-2.64301127101758
mp-2602,NdAs,-1.503562295
mp-26021,LiCoPO4,-2.4497405619387744
mp-26027,LiNi(PO3)3,-2.4607811032950684
mp-26039,Li3Mn2(PO4)3,-2.56966748909723
mp-2604,MgTe2,-0.5792789369444442
mp-2605,CaO,-3.3164024331249995
mp-26051,LiMo8(P2O11)4,-2.3372689462334115
mp-2606,BaPd5,-0.3419172716666665
mp-2607,UGe3,-0.3265474049999994
mp-26077,Li3Fe3(PO4)4,-2.528221526831501
mp-26083,Li2Mn3(P2O7)2,-2.629803033563677
mp-26085,Li3Mo2(PO4)3,-2.597372165285712
mp-26086,LiMo2(PO4)3,-2.54652473707672
mp-26093,LiNiPO4,-2.3109808557483
mp-261,Ba3Al5,-0.2302079068750004
mp-2610,Tb5Ge3,-0.7892927712500004
mp-26114,Ti(PO3)4,-2.755250019369748
mp-26127,LiVPO4,-2.649085631819727
mp-2613,LaCu5,-0.1491183808333337
mp-26131,LiMo(PO3)4,-2.595543685608465
mp-2614,HfAl3,-0.3865544125000006
mp-26143,Li3Mn3(PO4)4,-2.5408558025435086
mp-2615,LaZn,-0.31588824
mp-2617,B2Pd5,-0.257615888809524
mp-26179,LiMnP2O7,-2.569081708924973
mp-2618,DyAg2,-0.3217269588888894
mp-26181,LiFeP2O7,-2.5602645665963206
mp-26184,LiFe2P5O16,-2.544335500813492
mp-262,Na3B20,-0.0617130700724628
mp-2620,DySi,-0.8291464949999998
mp-2621,ErAg,-0.346539251666667
mp-26223,Li4Cu(PO4)2,-2.505168459753968
mp-26225,LiV(PO3)3,-2.644867756509354
mp-26226,V(PO3)3,-2.647317917458792
mp-26239,LiMoP2O7,-2.6041886320508665
mp-2624,AlSb,-0.1594864025000002
mp-2625,U2C3,-0.1242786795
mp-26251,LiVP2O7,-2.719895514550865
mp-2626,Zr3Rh5,-0.8132355812499998
mp-26262,LiCu(PO3)4,-2.354908647830688
mp-2627,DyAs,-1.5264144549999994
mp-2628,DyCo2,-0.1724201866666668
mp-2629,Ce7O12,-3.928629957894736
mp-2631,Ba4Al5,-0.2217055055555555
mp-2632,TlF3,-2.1221820327675003
mp-26323,LiMoP2O7,-2.5959140581872293
mp-26324,MoP2O7,-2.5422872085892854
mp-2634,NbN,-1.2597105211899997
mp-26351,Li3Mo3(PO4)4,-2.552464214395604
mp-26359,Li2Co(PO3)4,-2.5563204296115285
mp-2636,GdMg,-0.1079026716666673
mp-26369,Li4Ni(PO4)2,-2.546277243253968
mp-2637,YSe,-1.7605622128385416
mp-26372,MoPO5,-2.414129062474491
mp-26390,Nb2(PO4)3,-2.85593428342437
mp-2640,TbAs,-1.53146556
mp-2642,CdAg,-0.0652752916666665
mp-2643,Ti3Cu4,-0.125866555714285
mp-2644,CoSb,-0.1615609799999999
mp-2645,YbNi5,-0.252947771111111
mp-2646,Mg3Sb2,-0.3644874980000001