material_id,pretty_formula,formation_energy_per_atom
mp-2647,Al2Au,-0.4230416333333338
mp-2648,NbS2,-1.4493734020833329
mp-2649,Zr5Sb3,-0.6667842850000003
mp-265,TaIr3,-0.7005861450000008
mp-2650,P4S7,-0.6007559014691553
mp-2651,PrF3,-4.4336316946425
mp-2652,Y2O3,-3.980255981833333
mp-26524,VP2O7,-2.627224858589285
mp-2654,Al2S3,-1.4546138725416669
mp-26563,LiFeP2O7,-2.5557138043235934
mp-2658,AlFe,-0.3272490999999995
mp-2659,LiN3,-0.4194258459516655
mp-266,Zr2Pd,-0.4891549000000002
mp-2661,SrSi,-0.4664297208333332
mp-2662,MnP,-0.5563201241133013
mp-2663,Nb3Pt,-0.3815803024999997
mp-26630,TiP2O7,-2.9658194880892865
mp-2665,PrRu2,-0.0967224400000006
mp-2667,CsAu,-0.3064106939655171
mp-26681,LiVP2O7,-2.7107731902326835
mp-2669,Mo8O23,-2.025129279475806
mp-267,Te2Ru,-0.337528278333334
mp-26702,LiSn2(PO4)3,-2.538771835410052
mp-2672,K2O2,-1.2960533071250002
mp-26728,VP2O7,-2.6363234490892857
mp-2673,YbPb,-0.543616493333333
mp-2674,YPt2,-1.0843926427777777
mp-26744,Mo4P7O24,-2.518266179285716
mp-2675,MgNi2,-0.2218841281944445
mp-2677,ScPd3,-0.8581298337499996
mp-2678,VPt,-0.5512139600000001
mp-2680,LaB6,-0.5622254049999995
mp-2681,Ho5Sb3,-0.9022109562499994
mp-26818,VP2O7,-2.633624651339286
mp-2682,Sb2Rh,-0.4705017183333335
mp-26829,LiCr(PO3)4,-4.052847301719577
mp-2684,TbGa2,-0.6573593933333335
mp-2685,HgPd,-0.171420925
mp-2686,Ca2N,-0.8876740807933329
mp-2688,HoGa3,-0.5325310849999996
mp-26884,LiTi2(PO4)3,-3.02166466818783
mp-2691,CdSe,-0.6279508711718749
mp-2693,SnSe,-0.4385506461718744
mp-2694,LaAl2,-0.5010386950000001
mp-26949,LiSn2(PO3)5,-2.5142999760119045
mp-2695,Sb2Os,-0.0161350650000002
mp-26956,V(PO3)4,-2.551333942899159
mp-2696,MgAg,-0.2522729333333333
mp-26963,LiVPO5,-2.674072200498512
mp-2697,SrO2,-2.206250239722221
mp-26977,LiMn2P3O10,-2.631392379131955
mp-2698,YCu2,-0.2611911511111113
mp-26980,MnPO4,-2.4521537386144345
mp-26989,LiCoPO4,-2.4479177543197284
mp-2699,CaSi2,-0.3757356983333331
mp-26997,LiCo(PO3)4,-2.4600325590806875
mp-2700,CaSi2,-0.3826975249999999
mp-27003,Li3Mo2(PO4)3,-2.606324296035713
mp-27005,LiMo2(PO4)3,-2.547661734298943
mp-27017,LiSnPO4,-2.4822053546768705
mp-27022,V2P5O16,-2.6413694936024843
mp-27026,Mn2P5O16,-2.460199245395108
mp-27027,Li3Fe3(PO4)4,-2.51876751228022
mp-27031,LiMnP2O7,-2.57358229028861
mp-27046,CoPO4,-2.1387257597619054
mp-2705,VPt3,-0.4440082499999995
mp-2706,SnF4,-2.736053328952
mp-27094,LiSn2(PO4)3,-2.540911111798942
mp-27122,LiSn2(PO4)3,-2.53618931693783
mp-27124,Cu4(BiS2)5,-0.6257844974342106
mp-27125,Na6MnCl8,-1.989526195049012
mp-27126,Na2Mn3Cl8,-1.677910815772732
mp-27127,Te4O9,-1.462862930096153
mp-2713,ErIr,-0.8810842500000007
mp-27132,Zr2P2O9,-3.3072390144917585
mp-27133,BiPS4,-0.7341655685119045
mp-27135,Bi(PO3)3,-2.499082673612637
mp-27138,K2PdBr4,-1.1847315765714284
mp-2714,Pr2Au,-0.5378324699999997
mp-27140,K2Sb4O11,-1.9845411452794115
mp-27141,P2H8O9,-1.8558206776238348
mp-27144,TlPO3,-2.2692890394642853
mp-27145,Ca5Bi3,-0.8436720509374998
mp-27146,Cs2Sb4S7,-0.9136181382874672
mp-27147,Rb3BiBr6,-1.4052305321250005
mp-27148,BeP2,-0.320835389047619
mp-2715,CoAs2,-0.326196711666667
mp-27150,Mg2V2O7,-2.6879800514015155
mp-27153,UBr4,-1.3341662749999998
mp-27161,ZnI2,-0.619606620625
mp-27162,Sc3Co,-0.2222072093749991
mp-27163,Ga(Ag3Se2)3,-0.1737966108789064
mp-27164,FeP4,-0.3712086911904758
mp-27167,Sn2IF3,-2.071297108095
mp-27169,KTa5O13,-3.305677156539473
mp-2717,Zr2Ni7,-0.4262416811111112
mp-27171,Hg2P2S7,-0.5951345699107148
mp-27172,Cs3In2Cl9,-1.927943763080936
mp-27173,P4Ru,-0.4471911635238096
mp-27175,InOF,-2.3937400549800003
mp-27178,HgPS3,-0.5837041835892862
mp-27180,NdSBr,-2.2331181043750004
mp-27181,KAuCl4,-1.3090910635066668
mp-27182,GdBr3,-1.9177801325
mp-27184,B10(Pb2O7)3,-2.467433173231982
mp-27185,KTh6F25,-4.438366414617188
mp-27186,MgVO3,-2.781528095416667
mp-27187,Be2TlF5,-3.2185388482437505
mp-2719,DyB4,-0.5964320726666656
mp-27191,Zr9S2,-0.7302752603409111
mp-27192,CsBe2F5,-3.4915112773601296
mp-27193,RbIO3,-1.38163358125
mp-27194,SnI2,-0.497819987777778
mp-27195,In4Bi2S9,-0.8686819778750007
mp-27197,Na4As2O7,-2.027057039134616
mp-27198,Cd(NO3)2,-1.094498726501111
mp-27199,AuSeBr,-0.1555247828645836
mp-2720,NdPt2,-1.0381427200000009
mp-27205,TlCl2,-1.2159624755066665
mp-27207,K2MgCl4,-2.252047816053333
mp-27208,RbMgCl3,-2.272281869122667
mp-27209,KTlF4,-2.5200669701822225
mp-27210,RbTlF4,-2.5196060045433337
mp-27211,KSb4F13,-2.7786641157483336
mp-27212,Sb2IF15,-2.4130918755750006
mp-27213,AuBr3,-0.1564814918750001
mp-27214,CsSnBr3,-1.227299747586207
mp-27218,Ge(BrF5)2,-1.8375297463
mp-27219,Mg(SbO2)2,-2.179717840119048
mp-27220,Tl5SbO5,-1.2652409357954546
mp-27221,Ca2Hf7O16,-3.948740065999999
mp-27227,LiAg3O2,-0.8151950773611117
mp-27228,Tl6Si2O7,-1.9130928322500007
mp-27229,Sb6S2O15,-1.8805972752173905
mp-2723,IrO2,-1.271091119166666
mp-27230,As2SO6,-1.7706897845138887
mp-27231,Li2TeO3,-2.029006822847221
mp-27234,Cu(IO3)2,-0.8363371969444439
mp-27239,Cs2VF6,-3.1697747020002303
mp-2724,TbSb,-1.1407129625000003
mp-27240,UCl5,-2.109396451883333
mp-27241,K2SbCl5,-1.8119352734125
mp-27243,K2PtBr4,-1.136826309428571
mp-27245,BSBr,-0.7341890899305556
mp-27246,LuSBr,-2.231921089375
mp-27247,Na3NbO4,-2.523359548437499
mp-2725,TbIr2,-0.8154311299999991
mp-27250,CsTcO4,-2.178087879238505
mp-27251,Bi2TeO6,-1.627919560833333
mp-27253,Au2O3,-0.4669832757500003
mp-27254,Ba(TeO3)2,-2.008029744166667
mp-27255,Ga2TeS2,-0.8333074572499996
mp-27256,Sb2(S2O7)3,-1.859658319655172
mp-27257,PBr3,-0.3875595546428574
mp-27258,P3Au2,-0.1103691281428567
mp-2726,SrCu5,-0.0626853477777776
mp-27260,CsAlCl4,-2.203468192245172
mp-27261,Ba7(BIr)12,-0.4843386187096767
mp-27262,Ca9Zn4Bi9,-0.6596960940909095
mp-27264,NaTiF4,-3.474701065793333
mp-27265,AuClO,-0.5973030203922218
mp-27267,ReP4,-0.3213401098571438
mp-27271,Tl8Ge5O14,-1.646336889907408
mp-27272,Ca3PI3,-1.5239362240816323
mp-27275,Li3BO3,-2.5619930742261903
mp-27276,Si12Ni31,-0.4912250341860462
mp-27277,PCl3O,-1.575777473920286
mp-2728,MnIr,-0.1578367348275868
mp-27281,LiH3O2,-1.618349500004444
mp-27283,TlPb2Cl5,-1.5029074564125002
mp-27284,V3ZnO8,-2.281611692083333
mp-27286,Ba(Ag3O2)2,-0.8415236600000007
mp-2729,Sn7Os3,0.0078150925000002
mp-27292,Hg3As2F12,-2.160585449075294
mp-27293,Tl4HgBr6,-0.7626958913636366
mp-27294,Ca3AsBr3,-1.789364855
mp-27297,ReCl4O,-1.324184005715
mp-27298,Ca11Bi10,-0.8112533047619053
mp-2730,HgTe,-0.1633711049999997
mp-27300,RbAuBr3,-0.8648060125000001
mp-27301,Rb3Au3Cl8,-1.382354416684286
mp-27303,NaAg3O2,-0.7209866087499996
mp-27304,K2MnCl6,-1.8043993516905752
mp-27307,Na2ZrF6,-3.653869528015555
mp-27308,SbBrF8,-2.1079988907020004
mp-27309,VF5,-2.827846264741668
mp-2731,TiGa3,-0.373676732499999
mp-27310,Na4Sn3F10,-2.8002609557000007
mp-27312,Nb2SeF14,-3.0172766231766914
mp-27313,NbSeF9,-2.815945637095796
mp-27314,SbClF8,-2.061905964778
mp-27315,CaTiF6,-3.9959232865175
mp-27316,Rb5Zr4F21,-3.791099510583
mp-27317,SbAsF8,-2.581814635952
mp-27318,Sb3(BrF8)2,-2.3486746599542854
mp-27319,Sc2Co3Si,-0.6118539716666666
mp-2732,PRh2,-0.7604865095238083
mp-27321,Na3(CuS)4,-0.8595173706818183
mp-27322,Nb2Te3O11,-2.183009210234374
mp-2733,Al8Mo3,-0.3357512263636363
mp-27330,La3(OsO5)2,-2.791077940499999
mp-27331,K3GeTe3,-0.8010377991428571
mp-27332,Cs3MnBr5,-1.5065801887164751
mp-27333,Tl3CoCl5,-1.221177393477778
mp-27334,Tl3FeCl5,-1.2508288140333337
mp-27335,NaAlSi,-0.099518943333333
mp-27336,CsCuBr3,-0.931586716586207
mp-27339,Sb2(SO4)3,-1.911617219080883
mp-27341,BH4N,-0.5500198229488878
mp-27342,Ge5F12,-2.522886567898824
mp-27343,Re4Cl8O9,-1.6703208284442848
mp-27344,Be(BH4)2,-0.2253274510796966
mp-27345,Na3BiO4,-1.73915115875
mp-27346,Al2Hg3Cl8,-1.5058633927753844
mp-27349,BSF7,-2.62163311275426
mp-27350,U(BH4)4,-0.2343303445834922
mp-27352,Sr(Ag3O2)2,-0.865733445606061
mp-27353,SbCl2F3,-2.053927754320556
mp-27354,Cs3HgCl5,-1.865597464177012
mp-27355,Pb2OF2,-2.222401934226
mp-27356,AsO2,-1.5985913133333334
mp-27358,Se2O5,-1.032933623705358
mp-27360,ReBiO4,-1.917014175000001
mp-27361,Nb(SeCl)2,-1.1566442562414998
mp-27362,Nb(SCl)2,-1.5147214615539994
mp-27365,BaBiSe3,-1.0347072804062498
mp-27366,KNiCl3,-1.5189498705560005
mp-27367,SeOF2,-1.792565957743438
mp-27369,RbGeCl3,-1.680894275456
mp-27373,SnClF,-2.013940143983333
mp-27374,NaAsSe2,-0.5484001582031253
mp-27376,Rb6Si10O23,-3.0280552959935894
mp-27377,K4Zr5O12,-3.275482556523809
mp-2738,DyNi,-0.454374930000001
mp-27381,CsSnI3,-0.9568518005862068
mp-27382,UTlF5,-3.4256791026357143
mp-27384,AgIO3,-0.7243200824166663
mp-27385,KTlCl4,-1.53625616684
mp-27386,TlHg5Cl11,-1.0358350285800002
mp-27388,Ba(SiNi)2,-0.5553487640000008
mp-27389,KSb2F7,-2.830097590133
mp-27390,K5ThF9,-3.5367596237139995
mp-27393,AlPd5I2,-0.43154026875
mp-27394,CsSnCl3,-1.803369511542207
mp-27396,NiCl2,-0.7645919055066669
mp-27397,IrBr3,-0.3079770187499999
mp-27398,TlBr2,-0.6564501037500001
mp-27399,SbBr3,-0.6081959831250003
mp-274,Nb5Sb4,-0.3072256077777777
mp-27400,RbCdBr3,-1.2507192625
mp-27401,NaIO4,-1.1060222924999994
mp-27404,As3(HO2)5,-1.5099094614222228
mp-27407,Ca12Be17O29,-3.1896329596767234
mp-27409,RbNiBr3,-0.9455993745
mp-2741,CaF2,-4.245612699126666
mp-27410,Sn4P3,-0.0523967365306116
mp-27411,TlP5,-0.0246487746428574
mp-27419,LiBiF6,-2.512114909225833
mp-27420,NaBiF6,-2.5072369502675
mp-27421,RbBiF6,-2.55419396683
mp-27422,CsBiF6,-2.5711076368838794
mp-27424,BaCu4S3,-0.8844559911718757
mp-27425,Sr(HO)2,-2.183492470281333
mp-27430,Sn2BF7,-2.872744756416333
mp-27431,Sn3BF9,-2.812636556849488
mp-27437,Zr(IO3)4,-1.340766882647059
mp-27438,TlBiTe2,-0.3132464324999997
mp-27439,TmIO,-2.983674229861112
mp-2744,LiPd,-0.4394024133333332
mp-27440,ZrCl,-1.5803935766300006
mp-27441,Au2Se4O11,-0.9983342493014704
mp-27445,As(IF2)3,-1.7468288267140004
mp-27449,GaTeCl,-0.9178665852533336
mp-27450,KCuCl3,-1.4514761270560002
mp-27451,Tl3PbBr5,-0.8978201841666669
mp-27452,Al2PdCl8,-1.6629306473709091
mp-27454,BaLi2Si,-0.2756910408333328
mp-27455,YCl3,-2.729651908278334
mp-27456,BaBr2,-2.2247286975
mp-27457,Ba(PO3)2,-2.990454319126984
mp-27462,AlPS4,-1.0263793868452378
mp-27463,Na5Fe3F14,-2.899837017802727
mp-27465,S8O,-0.7881337701388892
mp-27466,LiTe3,-0.3805112445833334
mp-27467,Ta6S,-0.3593638758035707
mp-27468,U2BiN2,-1.2737638449520006
mp-27469,Th2BiN2,-1.6687379269519993
mp-2747,TbPd3,-0.8864961724999993
mp-27472,NbSbF10,-3.006037525158334
mp-27473,Sb2TeF14,-2.597638200685882
mp-27475,WSCl4,-1.3064128035274998
mp-27477,TcOF4,-2.341184059890556
mp-27479,Pr2W2O9,-2.917558890288462
mp-2748,CeAs,-1.4295319224999998
mp-27480,Sn2OF2,-2.227752899726
mp-27482,Ag4P2S7,-0.5267461540270145
mp-27483,Li5TlO4,-1.8940628212083328
mp-27484,Tl2O,-0.8257053037499998
mp-27485,Tc2O7,-1.8111719956944456
mp-27487,Li2ThN2,-1.216949707618666
mp-27488,Ta3N5,-1.285977906487501
mp-2749,TiBe2,-0.1939277966666666
mp-27490,Te2AuCl,-0.4047428445649998
mp-27493,Sn3(PO4)2,-2.3101151792032963
mp-27496,YUO4,-3.913436639722222
mp-27499,BaTeS3,-1.2863771918750004
mp-27501,Cs2ThCl6,-2.5608917983802297
mp-27503,LiV3O8,-2.349643766805555
mp-27506,K3W2Cl9,-1.685767944881429
mp-2751,YbSn3,-0.4375745366666668
mp-27510,MgMn2O4,-2.354296618509097
mp-27511,MoOF4,-2.58397528371
mp-27513,Sc7Cl10,-2.051423561035294
mp-27515,TlSb3S5,-0.6516822420138885
mp-27517,Rb2CoI4,-0.9091933221428572
mp-27523,VPCl9,-1.342699263901039
mp-27525,K3TlF6,-2.731163729864
mp-27526,K3InF6,-3.015332652114
mp-27527,Te2AuI,-0.1003956587500001
mp-27528,Cd4As2I3,-0.3650728712500001
mp-27529,PI3,-0.0580505071428572
mp-2753,Tl4S3,-0.5691158577678576
mp-27531,TeMo5O16,-1.9597921064772728
mp-27532,Si(PbSe2)2,-0.5230550684821428
mp-27533,P2Pd15,-0.2568328521848738
mp-27535,Ca(IO3)2,-1.5389583727777785
mp-27536,UBrO2,-3.0134096531250014
mp-27537,Na2TeO4,-1.82372346
mp-27539,La2ReO5,-3.27177662015625
mp-2754,Hf2Fe,-0.1827251654166666
mp-27543,As4S3,-0.3957851220535718
mp-27544,Cs3Bi2Br9,-1.2639060381280791
mp-27546,CaClF,-3.510745996483333
mp-27549,K2AgBi,-0.3339889410833336
mp-27556,CsNbO3,-2.8437411650862074
mp-27559,Na14Cd2O9,-1.4816381196499997
mp-27561,Rb9O2,-0.6606609009090909
mp-27562,Na2Pd3O4,-1.155647647222222
mp-27563,Rb2In4O7,-1.904869004134616
mp-27564,Na4B2O5,-2.413216172992424
mp-27566,K3(PtO2)2,-1.3853479965555546
mp-27569,Na14Mn2O9,-1.568747136899214
mp-2757,CdAu,-0.179556325
mp-27570,CsFeCl4,-1.669439707661839
mp-27573,NaSb3F10,-2.776147979064285
mp-27575,Te5(O2F11)2,-2.228743272457419
mp-27576,Sc2GeO5,-3.3151476091145824
mp-27577,Cd2As3I,-0.2130331424999999
mp-27578,As(S2F3)2,-1.8315314842286368
mp-27579,Na4P2O7,-2.621079559684067
mp-2758,SrSe,-2.0623207895052085
mp-27580,Zn3(AsO3)2,-1.774474937272727
mp-27583,Sr2P6O17,-2.861613592440476
mp-27587,Li8Pb3,-0.3279082366666669
mp-27588,Be(PO3)2,-2.7908040174603173
mp-27589,Cu5(PO5)2,-1.654418507626051
mp-27594,As4(Pb3S5)3,-0.7422756406026788
mp-27595,K2ReF8,-2.808389144592728
mp-27597,K2Mo2O7,-2.213720276795455
mp-27599,KIn2F7,-2.9263708023830004
mp-276,TbNi2,-0.4326155183333331
mp-2760,Nb6C5,-0.5454586672727285
mp-27604,MgMo2O7,-2.3025549577083337
mp-27606,ZrAs2,-0.8386136275000003
mp-27607,Bi4Se3,-0.2715972081473212
mp-27608,Be4TeO7,-2.5813786973958344
mp-27614,Ca2V2O7,-2.915934863977273
mp-27615,U(PO3)4,-2.84165055789916
mp-27616,ErSCl,-2.602144152128333
mp-27617,Ce2SeF4,-3.760099391014821
mp-27618,Na8Ga2O7,-1.887489171250001
mp-2762,YIr2,-0.8116820977777776
mp-27622,Na2PbO2,-1.5931332184999996
mp-27624,CaV2O6,-2.7056861336111115
mp-27629,Cs3Sb2Cl9,-1.8045342945095075
mp-27632,K2TcCl6,-1.7246026439511108
mp-27634,TiBr4,-1.2311074225000005
mp-27636,Cs2SnI6,-0.9152465206513408
mp-27637,NiBr2,-0.395447166666667
mp-27638,NiI2,-0.0226320766666668
mp-27639,IBr,-0.0868927075000001
mp-2764,LaNi3,-0.3238637770833333
mp-27640,Cd(IO3)2,-1.039217029444444
mp-27641,CsBr3,-0.9815310882327586
mp-27647,AuCl3,-0.7055627549449999
mp-27648,Te2Br,-0.1679311995833329
mp-27649,BaU2O7,-3.648994330375
mp-27652,ThI2,-1.0660169891666669
mp-27655,Te2I,-0.058556444583333
mp-27656,Zn2(PS3)3,-0.7841325159885214
mp-27657,Ca2B6O11,-3.0763971279605262
mp-27661,U2Cl5O2,-2.696501900977778
mp-27662,CsI2Br,-0.9252389694827584
mp-27664,TiPCl9,-1.5322258893555842
mp-27666,IrCl3,-0.9445182186950004
mp-27668,Mg2Ga5,-0.1252723002380951
mp-2767,TiGa,-0.4718543599999991
mp-27670,Rb4In2S5,-1.304441285511364
mp-27673,TaPS6,-1.0314810760714297
mp-27674,K5As3O10,-2.027489998333333
mp-27677,KCu4S3,-0.6524223777968756
mp-27678,Y2Cl3,-2.206413741289334
mp-27684,Tl4O3,-0.9447143169642856
mp-27686,Cd2P2O7,-2.3604210441720785
mp-27687,LiP7,-0.1589702711458338
mp-27688,K2TeI6,-0.757993049
mp-27689,PH4Br,-0.2647333405085715
mp-27691,K2PtBr6,-0.995227341777778
mp-27692,BaB4O7,-3.0316537965277788
mp-27694,H3ClO5,-0.9466787050411116
mp-27697,ThI4,-1.2364195525
mp-27698,Y6UO12,-3.9785124728947374
mp-277,Zr3N4,-1.693426331360001
mp-27700,Sb4Br2O5,-1.527404607386364
mp-27701,Mo9O26,-2.0281352634999994
mp-27702,InClO,-1.8157377648366664
mp-27703,InBrO,-1.4944713904166662
mp-27704,K3V5O14,-2.4115906993863647
mp-27707,RbCoCl3,-1.5122983074560004
mp-27710,CrB4,-0.3026479046666665
mp-27714,H3OF,-1.6389475206600004
mp-27716,KTlO,-1.2068094714166666
mp-2772,ZrAl2,-0.5378202358333333
mp-27724,BPS4,-0.7533361899007941
mp-27725,AuI,-0.0763270387500001
mp-27726,SO2,-1.7535467168750003
mp-27729,ICl3,-0.649859752445
mp-2773,BeCo,-0.3055314650000005
mp-27731,HfH2,-0.5799811424133333
mp-27732,W10O29,-2.1550684265705105
mp-27734,CrBr3,-0.8168841462499996
mp-27735,GaSbCl6,-1.4458008721325002
mp-27736,Re2P5,-0.3668361168367359
mp-27739,As2S2O9,-1.7941229363461535
mp-27741,TeAuI,-0.138499404166667
mp-27742,K2CdO2,-1.4321750232
mp-27743,BiF5,-2.1540536234916665
mp-27747,PdI2,-0.2514655600000003
mp-27749,K2Sb4S7,-0.907246442528846
mp-2775,SrAl4,-0.230370049333333
mp-27752,Na6Ge2S7,-1.2363338811250002
mp-27753,In2(PS3)3,-0.7814760797385206
mp-27755,KAlCl4,-2.15545105184
mp-27757,Be4B,-0.016429741666667
mp-27758,AlTl2F5,-2.9929974907437504
mp-2776,Ga2Au,-0.2381161200000002
mp-27760,PrSi2,-0.6041132199999998
mp-27762,UBrN,-1.612790034126667
mp-27763,UIN,-1.3154852424599994
mp-27764,K4I2O9,-1.4349457448833334
mp-27768,Co(BW)3,-0.4433002914285729
mp-27769,V3AsC,-0.5174218359999998
mp-27770,RhCl3,-1.072619471195
mp-27771,Nb3Br8,-0.9292515277272728
mp-27772,Nb3I8,-0.5222055209090916
mp-27774,NClO6,-0.5726785416424995
mp-27776,Cd2AsCl2,-0.9398140713040004
mp-27779,Hg(Mo3Cl7)2,-1.289489004911429
mp-2778,HoAg,-0.3405517266666669
mp-27780,TcCl4,-1.0188422078579995
mp-27783,CsReBr4,-0.8564819223635057
mp-27786,SbAs2Cl13,-1.09358594202375
mp-27787,NbPCl10,-1.4394263005142858
mp-27788,TaPCl10,-1.502989993014286
mp-27790,BaTi5O11,-3.523204849632352
mp-27791,SrBe3O4,-3.120552039583333
mp-27792,K2S5O16,-2.0249413774619573
mp-27793,Nb2Se,-0.5125346141145831
mp-27794,BaB8O13,-2.9533590277462123
mp-27797,Li4H4Rh,-0.4795309601274071
mp-27802,BaSn2S3,-1.3460532207291678
mp-27804,Rb3Cu2Cl7,-1.6003271791933338
mp-27805,Ba3SiS5,-2.094147559791667
mp-27806,Ni(NF7)2,-1.0230497842011768
mp-27807,Mn2O2F9,-1.9133192078415653
mp-27808,Te6Cl2O11,-1.4476594573826314
mp-27809,Ba(GeP)2,-0.5059795324285716
mp-2781,ScPd,-0.9094681924999994
mp-27810,Ba(GeAs)2,-0.5040931534999998
mp-27811,Li2Te2O5,-1.857976667731481
mp-27814,CS14,-0.5565663495833338
mp-27815,NbCl3O,-2.1126877657060006
mp-2782,ZnP2,-0.2485675036309527
mp-27821,Ag3P11,-0.0251406317346933
mp-27823,SmClO,-3.4885174509477785
mp-27824,PICl6,-0.9632408122664288
mp-27826,K2MoCl6,-1.7821475872844443
mp-27827,Rb2TiCl6,-2.1993113427288886
mp-27828,Cs2TiCl6,-2.2314986206024523
mp-27829,Rb2SeCl6,-1.5212458407670837
mp-2783,Ta2Si,-0.5571066100000005
mp-27830,Cs2SeCl6,-1.5526176186406468
mp-27831,Rb2ZrCl6,-2.3436097238400007
mp-27832,Tl2SnCl6,-1.422530629951111
mp-27833,Tl2TeCl6,-1.2118306443955555
mp-27834,Tl2PtCl6,-1.1761860532844446
mp-27835,K2OsBr6,-0.8861205306666666
mp-27837,NaHF2,-2.529871599
mp-27838,Na3Bi,-0.3779527149999999
mp-27839,K2TiCl6,-2.171511617284444
mp-2784,Na2Te,-0.9357030933333328
mp-27841,VBrO,-1.7968713220833326
mp-27843,Zn2Ge3O8,-2.027619705961538
mp-27845,CaSe2O5,-1.9248259616796872
mp-27848,TiIN,-1.2790114357933329
mp-27849,TiBrN,-1.5077636457933323
mp-27850,TiNCl,-1.861113298546666
mp-27851,Hg3(SeCl)2,-0.5999405994582142
mp-27852,Hg3(TeCl)2,-0.5723714430742858
mp-27853,Hg3(TeBr)2,-0.3420832942857143
mp-27854,TaCl4F,-2.212122552371667
mp-27857,PdBr2,-0.3399105099999999
mp-27859,SbI5F6,-1.5777650983727778
mp-2786,Ca5Zn3,-0.2047935731249999
mp-27861,Ce(Re2Si)2,-0.4679095464285723
mp-27863,AlClO,-2.7838503448366674
mp-27865,KMgCl3,-2.249794786722666
mp-27866,MoS2Cl3,-1.1931026451716669
mp-27869,Ba2PCl,-1.8129855429578567
mp-27871,RhBr3,-0.4517540924999998
mp-27878,NaSb5O8,-1.8093547135714283
mp-27880,Nb3Cl7,-1.6640905367820005
mp-27882,Cs2GeCl6,-1.797311140602452
mp-27887,Ba3(Si2P3)2,-0.657571177802198
mp-27888,Zr3GeO8,-3.3961987616666662
mp-27889,K(V5S8)2,-1.3776109217777783
mp-2789,NO2,-0.8244824605155551
mp-27891,Bi2SO2,-1.3784983471249994
mp-27894,La2Re3B7,-0.4712520794444437
mp-27895,ErNiB4,-0.5774564347222212
mp-27896,BF3,-3.133863061413333
mp-27898,Zr3AlN,-1.0451414104760004
mp-27899,Cd3AsCl3,-1.0070072021114282
mp-279,LiIr,-0.2653751983333334
mp-2790,Ni12P5,-0.476437990168068
mp-27902,BiSe,-0.3171350211718747
mp-27904,FeSbS,-0.5832991218749998
mp-27910,Bi2Te2S,-0.4201257186249997
mp-27911,BiAsO4,-1.7770165933333335
mp-27913,CoHO2,-1.4139509365299991
mp-27914,Na3BiO3,-1.7313183069642852
mp-27915,K2BeO2,-2.1148341602
mp-27916,AgBiSe2,-0.2595023245052084
mp-27919,Ti8C5,-0.7193612584615378
mp-27921,Ti2PCl13,-1.702738341387589
mp-27922,GeI2,-0.3429528822222221
mp-27925,KEr2F7,-4.249569923008
mp-27926,AsClF8,-1.939949500278
mp-27927,NbAlO4,-3.2362776041666663
mp-27928,Ge2S3I2,-0.6083710291964292
mp-2793,AuSe,-0.100867113671875
mp-27931,Rb2SnO2,-1.6537128595
mp-27932,Li9Ge4,-0.3463773238461539
mp-27934,CdBr2,-0.8881012500000001
mp-27935,AlICl6,-1.31050845557
mp-27936,Na2SbF5,-2.9019912751187498
mp-27938,Tl6SI4,-0.6517888016477271
mp-27939,Er(PO3)3,-3.036503583804945
mp-27941,AgClO3,-0.5374174380686668
mp-27947,Sn(SbTe2)2,-0.1828212171428569
mp-27948,Ge(BiTe2)2,-0.1876812328571431
mp-2795,ZrC,-0.8049817900000011