material_id,pretty_formula,formation_energy_per_atom
mp-1195788,K2Mo2Se2O11,-1.8752305280551465
mp-1195789,Sr5(IO6)2,-2.3592538259649123
mp-1195792,TmCo5P3,-0.851075935171958
mp-1195796,TeHO3,-1.4243035889739992
mp-1195798,Yb5P12Ru19,-0.7715338418386245
mp-11958,CaSn2Pd,-0.6773346112499996
mp-1195801,MnAs2H16(S2N)4,-0.6206660596643596
mp-1195802,Sm4(GeS4)3,-1.65219752741228
mp-1195805,Ga41Mo8,-0.1333375926530603
mp-1195807,TiP2(HO4)2,-2.6036998553371427
mp-1195808,Ag4Sn3S8,-0.5981922353888891
mp-1195809,Gd2HfS5,-2.307473516640626
mp-1195810,YAg(IO3)4,-1.2791454152314812
mp-1195820,Ho9Sb5CO4,-2.059992896842106
mp-1195822,CsNb2PSe10,-0.5908344849957113
mp-1195826,Mg2P2O7,-2.9961035795508675
mp-1195827,SrLiAlF6,-3.895987403108148
mp-1195831,Li(HoGe)4,-0.8315471532407407
mp-1195833,Y(Cd10Ni)2,-0.0998024729710147
mp-1195835,Ga2SbTe4Cl7,-1.0281291809157145
mp-1195837,Ga40Mo8Au,-0.154986506122449
mp-1195841,VPb2Se3O10,-1.626380481689453
mp-1195844,Ba3B6O11F2,-3.217911870733182
mp-1195845,KLaH2S2O9,-2.424699624404889
mp-1195848,U6Rh2S15,-1.7069016426902173
mp-1195855,Y2Re3Si5,-0.5947703876666666
mp-1195864,Ca10P6CO27,-3.2644222732995134
mp-1195865,Ce2Te4Cl2O11,-2.2353166452773685
mp-1195868,LiCeF5,-3.8359352575166654
mp-1195871,VH6SO8,-1.7443549343653126
mp-1195872,Sm3Ga2,-0.5019310295000003
mp-1195873,KVOF3,-2.996834969845
mp-1195876,U2B6Mo,-0.5682079544444447
mp-1195877,B10H13Cl,-0.2409224225480552
mp-1195878,Nd(Mg10Ni)2,-0.0725367120289855
mp-1195883,Rb2MnSi5O12,-3.0246657872182583
mp-1195885,Er5Pt4,-1.200396243055555
mp-1195892,RbFe2F6,-2.8856581163488886
mp-1195894,K9Li3Nd3(BO3)7,-2.781903516664728
mp-1195896,RbHSO4,-2.081846777035
mp-1195899,K2CoP4(HO2)8,-2.1437341314272804
mp-11959,CaSn2Rh,-0.6708654537499994
mp-1195907,Nd4GaSbS9,-1.935816341541667
mp-1195909,BaPr2Sc2O7,-3.750925853229168
mp-1195912,VPbOF5,-2.7586665674625
mp-1195913,Ga4Bi2O9,-2.0772024530833333
mp-1195923,DyCo3P2,-0.93287018202381
mp-1195928,Ce2CuBiS5,-1.6183413556250004
mp-1195934,Na2Zn3H4(Se2O7)2,-1.5544628589390743
mp-1195946,Cu7Se2(Cl3O4)2,-0.9941192760542392
mp-1195947,K23(Sn3Au4)3,-0.3219033636136362
mp-1195951,Rb2ScSi4O10F,-3.294526424371666
mp-1195952,VPH5O7,-1.9540981012801009
mp-1195957,Er5(Si5Ir2)2,-0.8959590657894738
mp-1195974,CsP2H5O8,-2.110133221760868
mp-1195976,U2Ta3Ge4,-0.3037577494444434
mp-1195978,K2Pd(S2O7)3,-1.9031399343666664
mp-1195982,La2ThS5,-2.569721109140625
mp-1195983,K2ZnCr2(H2O5)2,-1.7519734456831584
mp-1195984,Yb3Ge13Ir4,-0.4880974954999999
mp-1195989,Tm3Si11Pt23,-0.8511084964864861
mp-1195999,Cs2CdP2O7,-2.545541034937912
mp-1196001,NdV2IO9,-2.303371541057692
mp-1196004,Re2Sb4O13,-1.9542940990131576
mp-1196005,Nd3Si11Pt23,-0.8853272066216215
mp-1196010,Ho2Nb2S7O30,-2.3888051329115862
mp-1196015,Cs2PAuS4,-1.1235978755541876
mp-1196017,H5CN3,-0.4486931339155546
mp-1196025,Rb3Sc2Si4(O2F)5,-3.459631781810416
mp-1196026,CsEr10(C2I9)2,-1.2262720290282128
mp-1196029,Rb3V(SO5)2,-2.323130265703125
mp-1196034,Pr3Si2BO10,-3.575557267708332
mp-1196038,Ba2B11H7O22,-2.604478898440634
mp-1196047,CsV2SbO8,-2.258921221702588
mp-1196049,V6H2Pb4Se3O26,-1.9154383361407623
mp-1196057,BaMn2Si2O7,-2.946023894790029
mp-1196062,Ca5(IO6)2,-2.3696078918421057
mp-1196063,Ga2Se2O7,-1.7011887805397727
mp-1196065,Cs2I4O11,-1.1568395958595332
mp-1196069,Nd6Al43W4,-0.271948599905661
mp-1196071,Ba2Fe2O5,-2.4139798141071425
mp-1196099,K3Bi7(SO6)4,-2.03119533681579
mp-1196108,Ba3Ga3P5,-0.7704196469264077
mp-1196113,TlP(HO2)2,-1.9706957602576785
mp-1196120,Sr4SiAs4,-1.019489047407407
mp-1196123,Nd2HfS5,-2.3092955091406253
mp-1196124,BaGe4O9,-2.364869926994048
mp-1196138,Yb14AlSb11,-0.9872650705128204
mp-1196140,NbP4Se3Cl5,-0.8333943587589976
mp-1196145,Al2Si2PbO8,-3.11360879375
mp-1196148,Sm2ZrS5,-2.3009580543489587
mp-1196151,InHg7S6Cl5,-0.7964346723710529
mp-1196159,Tm5(Co2Si7)2,-0.6575164042028981
mp-1196161,AgAuF7,-1.3384773132403704
mp-1196164,PrAs2Au,-0.7646267284374995
mp-1196166,CuP4S3Br,-0.4409955351289688
mp-1196167,NbFeSi2,-0.5948203808333332
mp-1196169,LiThF5,-4.145853413588095
mp-1196171,LiScH2Se2O7,-2.0064942737380136
mp-1196173,Na3NbS4,-1.4345920034375
mp-1196175,Y2Ni17,-0.1944783237719305
mp-1196177,GdPS4,-1.4922696666369053
mp-1196184,LaV2IO9,-2.3310233424038462
mp-1196185,V4Cu9(ClO9)2,-1.5127008693642423
mp-1196188,Pr5Zr3(Ni4As3)4,-0.8215963087500006
mp-1196191,BNF8,-1.814390134523333
mp-1196215,La2MgNi2,-0.311989429416667
mp-1196220,TbH7C4O11,-1.7695628143082605
mp-1196224,Ba6Sn6Se13,-1.2266059079187506
mp-1196229,La13(B2O13)2,-3.683739528042636
mp-1196232,Nd6Fe13Pb,-0.0666824780000013
mp-1196235,Sm2USe5,-1.605341294798177
mp-1196241,SrBe(HO)4,-2.126058325364667
mp-1196249,Ti11Ni9Pt4,-0.6021022072916663
mp-1196250,Er(BRu)4,-0.5008431917592604
mp-1196257,Ca(BH)12,-0.4026370917375999
mp-1196259,Sb(WBr3)5,-0.5107875530952386
mp-1196273,Bi4BPO10,-2.1635068740252983
mp-1196279,Sc11Ge10,-0.8243437219047623
mp-1196282,CsH2F3,-2.367466805206839
mp-1196286,Rb3Ni2(NO3)7,-1.225394291300303
mp-1196297,CsRb2Sb4F15,-2.859463477990047
mp-1196298,V4Pb3O3F19,-2.8145597767710338
mp-1196300,Nd2ZrS5,-2.302444891953126
mp-1196301,La2Mn(SeO)2,-2.6059245112932388
mp-1196304,NiTe6O13,-1.4571049395624995
mp-1196315,BaCe(SnS3)2,-1.5612793731249994
mp-1196316,Cr7C3,-0.0998490193750001
mp-1196318,Cs2Li3B3P6(PbO12)2,-2.6981733336197657
mp-1196324,AgSO4,-1.493277818576389
mp-1196326,Sm6Fe13Sn,-0.1117441702500002
mp-1196327,Ho2(MoO4)3,-2.724982560735294
mp-1196334,Ba2U(AsO5)2,-2.8233579704166667
mp-1196336,Cs2UAs2O9,-2.481045795686576
mp-1196343,Rb4BaV6O18,-2.517603777499999
mp-1196350,InSb(P2O7)2,-2.466908590214287
mp-1196355,Sm3Ge13Os4,-0.3414782879999997
mp-1196369,Y4RuBr5,-1.4180593315833327
mp-1196378,VH12SO11,-1.6167712110126002
mp-1196379,CeMoClO4,-4.115981553680001
mp-1196393,Y3Sb,-0.6183448246875001
mp-1196394,P2H19C6I7N,-0.3218154625229382
mp-1196396,Tl4GeSe4,-0.396556305763889
mp-11964,Ce2CdPt2,-0.9435349000000002
mp-1196402,Mn6Ga29,-0.1440108913694578
mp-1196410,NaCu5Se2Cl3O8,-1.145866919708816
mp-1196411,Ce2H16S3O20,-1.9753129746901217
mp-1196414,Y5(Ge5Ir2)2,-0.7873524590350889
mp-1196419,Ta3Bi7O18,-2.347615792232143
mp-1196422,Sr3Sn13Ir4,-0.4606841377499996
mp-1196424,Cd(PN2)2,-0.402086600654217
mp-1196425,Na2ZnB6O11,-2.695755254437499
mp-1196426,Yb11AlSb9,-0.9736118103968256
mp-1196434,K5Fe2Te5,-0.69343940625
mp-1196436,LaB5H5NO14,-2.3187552572941024
mp-1196438,CsCu2AsS3,-0.7659142140794337
mp-1196446,Li3AsH16(SO2)4,-1.3308675948568751
mp-1196451,Ga3Sb7(S4Cl7)2,-1.15251493486375
mp-1196453,Dy6H40N8O49,-1.666857117913494
mp-1196457,Li2B3O4F3,-3.0157421182836104
mp-1196459,Al2Sb5(Se2Br3)3,-0.6658883298437505
mp-1196460,ZnB3H3O7,-2.245808304972144
mp-1196467,Rb2Cu3P4(O3F)4,-2.3804276143618286
mp-1196472,Pr2US5,-2.251571887890625
mp-1196481,Sr3Te4O11,-2.264299379652778
mp-1196485,Sm3InS6,-2.0870426403750004
mp-1196487,RbUH2SeO7F,-2.269951645155674
mp-1196496,Ho5Bi3,-0.6568063515624996
mp-11965,Ce2CdPd2,-0.6647306620000002
mp-1196505,Na9Fe(MoO4)6,-2.175451446375
mp-1196506,Zr5Si6H36C12(Br10O3)2,-0.9651179216802348
mp-1196511,Pr8C8Cl5,-1.1033871410142848
mp-1196513,ScGe2Ru,-0.6695962664583336
mp-1196514,KS3,-1.0165868096562498
mp-1196525,Sm5Rh4,-0.7143703924074072
mp-1196526,Nb6I11,-0.4618737294117644
mp-1196529,Na6W6Se2O25,-2.086768270024038
mp-1196530,Lu5(Ge5Ir2)2,-0.7356206523684206
mp-1196532,KCa4Si8H16O28F,-2.5451714155536216
mp-1196535,Cs3B3Se10,-0.545825189514412
mp-1196546,Ag2Ge(S2O7)3,-1.7444137927777787
mp-1196547,TlAsH2F10,-2.19500698601
mp-1196550,Ca2Mg5Si8(HO12)2,-3.178932752046504
mp-1196551,Rb7SmFe6(P4O17)2,-2.595561433873299
mp-1196557,Na11B21(BrO18)2,-2.7059030046428565
mp-1196559,SmV2IO9,-2.303334534198718
mp-1196570,Rb2LuSi4O10F,-3.3405572302049995
mp-1196579,Cs2CuSi5O12,-2.877950823355603
mp-1196581,KPO3,-2.6895866174392866
mp-1196590,Lu11Ge10,-0.8130130021428575
mp-1196607,NaIn(IO3)4,-1.1496720227777777
mp-1196608,Nd6TlFe13,-0.0415774124999998
mp-1196612,Rb2PS3,-1.2726279084077377
mp-1196616,Ni2BiB(PO5)2,-2.241175054873511
mp-1196619,Ir2(Se3Cl2)3,-0.5433570294502204
mp-1196620,SrLa2WO7,-3.30559298753788
mp-1196623,Cu3Ag2Bi7Pb3S16,-0.6763709174731186
mp-1196650,Na2(ReSe2)3,-0.6039278494602272
mp-1196651,Rb8Mn5O10,-1.6995341821989511
mp-1196660,B5H4NO8,-2.2342660986681486
mp-1196661,ErNiSn2,-0.5636088245833335
mp-1196663,La4InSbS9,-2.0057709162916675
mp-1196674,Cs2ErSi4O10F,-3.32979969316956
mp-1196677,CsOsC3(ClO)3,-1.3765687828600948
mp-1196684,Tm2Fe3Si5,-0.6986716044166655
mp-1196686,Cs2U6Pd4S17,-1.5466987244478307
mp-1196688,Te3As2O11,-1.565468688046875
mp-1196692,Ca5V3O13,-2.956210428154761
mp-1196696,Na7UH4S4ClO20,-2.2641329440605404
mp-1196703,Er11Sn10,-0.7135079209523809
mp-1196710,CsFe5(MoO4)7,-2.042187861291002
mp-1196712,Dy4GaSbS9,-1.9359643042083337
mp-1196714,RbTh2F9,-4.312232890059168
mp-1196716,Dy(NO3)3,-1.555474064106923
mp-1196727,Ho5Bi2Pd,-0.6817568321874994
mp-1196732,RbH2(IO3)3,-1.1027851643993334
mp-1196740,Cs3H12N4F3,-1.1783015627419586
mp-1196745,Sr2As2O7,-2.53211556814394
mp-1196753,NaMg(PO3)3,-2.8020158902891152
mp-1196754,Rb4Mo5H4Se2O23,-1.913530785471513
mp-1196758,KCd(BO2)3,-2.5685520202727274
mp-1196759,Yb11Bi10,-0.7901758470634925
mp-1196764,Tb(PO3)3,-3.0241827501510983
mp-1196773,Cs2Mo3P5O19,-2.577453083361007
mp-1196778,Y2B6Ru,-0.6627471835185182
mp-1196780,Rb2ZnBr4,-1.439879146309524
mp-1196816,K5In3F14,-3.006015288484545
mp-1196826,CsNbS2O9,-2.390246425033157
mp-1196828,NaLiMgPO4F,-2.9817822619179366
mp-1196829,Ce5Si4,-0.6063647419444441
mp-1196832,Er6H40N8O49,-1.6686962643212622
mp-1196837,Ca(Al10Cr)2,-0.1158060365217397
mp-1196838,Dy2Re3Si5,-0.5949066044999995
mp-1196845,Sm6TlFe13,-0.0633809429999999
mp-1196865,Cs8In2O7,-1.5569169492469574
mp-1196869,Ba3Al2O6,-3.270544820378789
mp-1196873,Er3Co4Ge13,-0.4110120569999999
mp-1196877,BaAl4(SbO6)2,-2.944777372894737
mp-1196881,Li2TeWO6,-2.088530462083334
mp-1196887,Ba4SiSb2Se11,-1.1126923314322918
mp-1196891,Ca2Al2Sn2O9,-2.96765563025
mp-1196892,RbErP2O7,-3.1650234691720787
mp-1196893,B3Pd16,-0.2110057768421053
mp-1196894,TbCo5P3,-0.8350175942460317
mp-1196898,Sm4(SiS4)3,-1.8184472550438588
mp-1196900,Sm3Co4Sn13,-0.3689159377500005
mp-1196904,LuCo5P3,-0.8542320048015873
mp-1196908,Li(NdGe)4,-0.808061471851852
mp-1196911,MnPb(SO4)2,-2.1112828222387634
mp-1196912,CuP4Se3Cl,-0.2536759555085521
mp-1196917,B2Mo(PbO2)6,-1.9979148088888887
mp-1196927,Ba4Sm3Cl16,-2.7686138753113045
mp-1196928,MgZrP2(H2O3)4,-2.273327754976508
mp-1196929,CdBiBF10,-2.584267606171795
mp-1196931,Rb2BiPWO8,-2.3563567381593407
mp-1196943,La2Zn(SeO)2,-2.643500549419644
mp-1196945,Cd3B4(PbO4)3,-2.149083791515152
mp-1196948,CaSb4H6(SO8)2,-1.901244110102413
mp-1196950,TePb3Cl4O3,-1.583448019026364
mp-1196951,Ce2Te7Br2O17,-1.940001602723214
mp-1196963,Er15Si9C,-0.7025165685999997
mp-1196964,Ba3Al3P5,-0.9250404649567106
mp-1196968,BH5(OF2)2,-2.116741838016111
mp-1196972,KAgPSe3,-0.4894731722671134
mp-1196973,Tm2B6Ru,-0.7233287221296286
mp-1196979,MoPbSeO6,-1.744469283315972
mp-1196980,Dy3Ga5,-0.6549435531250003
mp-1196981,Sc57Pt13,-0.5687863409999994
mp-1196984,Ga2PbS4,-1.04520332
mp-1196988,K5Li2PrF10,-3.3586065405685184
mp-1196989,ZnP2(H4O5)2,-1.8728605987429927
mp-1196992,La3Sn13Ru4,-0.4636415077499997
mp-1196993,Ga6CuSb7(TeCl3)8,-1.0840452350704353
mp-1196998,K3Ge17,-0.0892386464500006
mp-1196999,Y3Rh2,-0.7463548207142854
mp-1197004,Tb10Mn13C18,-0.3022668933052977
mp-1197011,As2S2O9,-1.7924329367307696
mp-1197014,Sn2H12Cl6O7,-1.436922069138889
mp-1197015,CdP2(H4O5)2,-1.864761208266803
mp-1197016,Lu4Ga21Ni10,-0.491433004571428
mp-1197017,Ba2Ge(Sb2S5)2,-1.1317087711029417
mp-1197022,CrB2(PbO2)6,-1.931000043055556
mp-1197029,Sm6Al43W4,-0.2699983100000006
mp-1197032,Ag7PS6,-0.4091572491539119
mp-1197046,Li3MgZn5(BH4)15,-0.2441068932206347
mp-1197050,Y2ZrS5,-2.2786730371614583
mp-1197062,Rb3P11,-0.3190678711989793
mp-1197065,Ba13Si6(Sn4As11)2,-0.6855689848979589
mp-1197073,Ba5Al3F19,-4.093357681948518
mp-1197082,Rb3Tm(SO4)3,-2.5811992968530704
mp-1197086,AlP2H18(C2Cl)3,-0.5476616200694281
mp-1197089,Na2LuPWO8,-2.818024089313186
mp-1197091,Ta4NiTe4,-0.3484527238888877
mp-1197095,Si(PbO2)2,-2.2812572062500007
mp-1197099,Tb3(Si3Ru)4,-0.646520609210527
mp-11971,HoSnRh,-0.918360189999999
mp-1197100,Ca4Si3H2O11,-3.1505652250495
mp-1197102,Rb4WS3O14,-2.26969079565341
mp-1197107,CsTi8F33,-3.71876141683812
mp-1197111,Bi20(PtI12)3,-0.424645492542373
mp-1197115,Dy5(Ge5Ir2)2,-0.7804234365789479
mp-1197116,Ca2B5H7O13,-2.4309498121576536
mp-1197125,K3Al2(AsO4)3,-2.357160054325
mp-1197129,Na2PH6(SeO)3,-1.108893487779845
mp-1197132,K2Pd(NO3)4,-1.2187996379221049
mp-1197137,Nd2Ge(BO4)2,-3.1766547935897425
mp-1197149,ReSi2(PO5)3,-2.6752775404506792
mp-1197150,Li(PrGe)4,-0.7962228754629632
mp-1197152,NdTmS3,-2.468563613291667
mp-1197158,Cs3Nb2Se11,-0.7790628176296464
mp-1197163,Li5Ca9B7O21F2,-3.1799980044385605
mp-1197167,Nd6Fe13Ag,-0.0187366046666667
mp-1197169,Lu6Al43W4,-0.2560724936792456
mp-1197171,KP2H5O8,-2.101304816765178
mp-1197177,CsRb14Tl27,-0.1207626462602628
mp-1197179,Er11(In3Ge2)2,-0.643603979047619
mp-1197180,Cs8Zr(MoO4)6,-2.362810528293545
mp-1197192,K3TlF6,-2.726991271114
mp-1197194,Ho3Ga2,-0.5411476205
mp-1197195,Rb2B7H5O14,-2.448429250319049
mp-1197200,Zn89(Cr2Au5)2,-0.0606263621844659
mp-1197203,CdAg2GeS4,-0.6771566861458331
mp-1197205,K2ZnH12(SeO7)2,-1.4932150561815327
mp-1197207,Mn8Si8Mo3,-0.3951655238021772
mp-1197212,ScReGe2,-0.4829811291666661
mp-1197227,Dy3Ni19B10,-0.4321034351041675
mp-1197229,Er11(Ni10C)6,-0.2853222071428573
mp-1197231,ReBi9O17,-1.7606944435648155
mp-1197242,Sr5Bi3,-0.8647480557291662
mp-1197252,Tb2ZrS5,-2.291063840390626
mp-1197262,Sm4Ge9Ir13,-0.6247318349358972
mp-1197266,Nd7Se4Cl3O17,-2.825146262755
mp-1197287,GeS2,-0.7652345740277772
mp-1197290,Tb3Ga5,-0.6627592840625001
mp-1197298,CuAs12P4S12Cl,-0.4813495453348574
mp-11973,YbSnRh,-0.7841807844444438
mp-1197303,Dy13Zn58,-0.3267511634507045
mp-1197316,Na2SrMg(PO4)2,-2.978711688188775
mp-1197319,Al2Bi7Ru(BrCl4)2,-1.1013074618040002
mp-1197320,Cs3Hf2P5S18,-1.2313933286750094
mp-1197323,CaZrAl9BO18,-3.4563204380277788
mp-1197340,Cs4AsH5Se3O16,-1.6044206750639782
mp-1197346,SbH2SO3F7,-2.211312488924643
mp-1197355,Er2(Ni2B)5,-0.477189102745098
mp-1197358,USiPbO6,-3.0728698986111107
mp-1197369,K16Na9(Tl6Cd)3,-0.1295640484347824
mp-1197371,BaNd2In2O7,-2.900183752604168
mp-1197374,Zr2S,-1.3180812065972236
mp-1197377,Ca3(PO4)2,-3.336822762408425
mp-1197380,CoHgH18Br4N6Cl,-0.667893554119355
mp-1197394,Tb11Cd45,-0.2529657833035713
mp-11974,TmSnRh,-0.9199844033333338
mp-1197401,K4B10H4O19,-2.5860006206368453
mp-1197413,Sc9Te2,-0.4515092577272719
mp-1197414,CaH4Se2O9,-1.560719339869844
mp-1197416,Sc2Ni7,-0.3895034716666667
mp-1197417,BaLa2Sc2O7,-3.806999866979168
mp-1197420,MgCrH22O15,-1.5049105513262389
mp-1197426,ZnP14Pb,-0.0546487415624996
mp-1197430,Cs2NaAs7,-0.3595739458362075
mp-1197435,Yb5Pt4,-1.0623658956481483
mp-1197438,Pr3Fe5O12,-2.61004723
mp-1197448,Tm(BRu)4,-0.5014666362962967
mp-1197456,CsUTe6,-0.5459198300538795
mp-1197457,RbBaSc(SiO3)3,-3.3537314475833333
mp-1197459,CaMgB2O5,-3.1379857279629624
mp-1197464,Ag2Te4MoO12,-1.4373730887719287
mp-1197467,Cs5Th(PS4)3,-1.4180831543033077
mp-1197474,NaMg(PO3)3,-2.80379768488733
mp-1197479,Fe7Sb3P3(BrO6)3,-2.022321520094538
mp-1197480,La3Sn13Ir4,-0.5600543107499995
mp-1197485,Bi2W2O9,-2.0244118414423067
mp-1197491,BaPO3F,-3.297702942043572
mp-1197494,CsVP3HO10,-2.6108307882665827
mp-1197500,Ba3Li2B10(H3O11)2,-2.668233417695039
mp-1197501,Bi6Se3(BrO7)2,-1.5010929749812498
mp-1197503,S5(IO9)2,-1.5850918843249997
mp-1197504,Sm2Re3Si5,-0.568023845916666
mp-1197508,Ho11Cd45,-0.2331633813392855
mp-1197511,Ti9Mn2(B4Ru9)2,-0.5586300111074881
mp-1197516,La2HfSe5,-1.7744043230273432
mp-1197519,PW4Cl11,-1.1909716462144653
mp-1197522,TmNiSn2,-0.5478639668750004
mp-1197527,Na3Th10BeF45,-4.321851171204238
mp-1197529,SrAu2(SO4)4,-1.8730180464855068
mp-1197535,Y2Nb3Ge4,-0.7006028474074069
mp-1197536,Er(NO3)3,-1.5537450246838456
mp-1197539,K3AsSe4,-0.8151701819843749
mp-1197547,Li15Pd4,-0.27005928
mp-1197560,Ga8Sb7Te8Cl29,-1.1673457220584615
mp-1197561,B10H13Br,-0.1929021534538879
mp-1197562,Pr4B4O11F2,-3.5302969921173024
mp-1197565,Ce(Cd10Pd)2,-0.1888036289130432
mp-1197569,Zn2Ni21B20,-0.2617125901550377
mp-1197575,Ag2AsS2,-0.3590758943333334
mp-1197580,Li6Ca17Hg9,-0.361004111875
mp-1197581,Na5B(SO4)4,-2.2919709511858977
mp-1197583,Lu5(Ge5Rh2)2,-0.7668579615789483
mp-1197586,Ho13Zn58,-0.3215771337323946
mp-1197590,Ho3Ga5,-0.6477212937500001
mp-1197592,Gd(SO4)3,-2.034881006210938
mp-1197597,Ta4CrTe4,-0.3505402708333334
mp-1197599,Ag2Sn(S2O7)3,-1.761532143111112
mp-1197605,Y10Mn13C18,-0.3064960392402593
mp-1197607,K3Al(PO4)2,-2.850550644843537
mp-1197617,Tb5(Ge5Rh2)2,-0.8190764639473684
mp-1197619,La4(DyS2)11,-2.49470170266892
mp-1197620,K3As(PSe3)3,-0.5087823247380023
mp-1197621,Ga4Cu9,-0.1080556482692303
mp-1197631,La2Co14B,-0.1054700181372547
mp-1197632,Sr2V3Se5O18,-2.031611491430432
mp-1197644,K3InF6,-3.011340994739
mp-1197646,Ba6Te10Br2O25,-2.092875565319768
mp-1197647,PrMoClO4,-2.707159641894285
mp-1197651,CsP(HO2)2,-2.231409817655307
mp-1197652,SbNCl8O,-0.8560809128145457
mp-1197654,Dy2Ni17,-0.201236774736843
mp-1197658,Ba4Cu8P15,-0.4786568688822757
mp-1197660,HfMnGe2,-0.4377805180387923
mp-1197663,ScCrGe2,-0.4704984556249994
mp-1197665,MgTl2H12(SeO7)2,-1.460670884805188
mp-1197667,Ce2Re3Si5,-0.607609923999999
mp-1197677,Ba2Mo15Se19,-0.696708912486979
mp-1197686,GaGe2H5CNO6,-1.43208269831125
mp-1197692,Tb3Ga2,-0.5322906812499995
mp-11977,LiSnAu,-0.4292812005555557
mp-1197708,CaMgB2O5,-3.137324296759258
mp-1197714,Rb3TeH6(ClO2)3,-1.6482354095526317
mp-1197719,CuAs12P4S12Br,-0.4534756710595246
mp-1197724,Ce(Al10V)2,-0.2249811602173914
mp-1197725,Y2Fe3Si5,-0.6937690106666665
mp-1197730,SiC,-0.2049667169117646
mp-1197742,In2Te5,-0.2197328133333334
mp-1197743,TbV(SeO4)2,-2.1900192537239582
mp-1197745,CsTi2P3(O5F2)2,-3.138153724045266
mp-1197755,Sc5Sb3,-0.8568361025
mp-1197756,KY(BH4)4,-0.426247538981212
mp-1197757,Ba20Cd4Hg99,-0.3065759908130081
mp-1197758,Tm(FeGe)6,-0.2814075358974355
mp-1197761,KV2PO8,-2.5017551769017863
mp-1197762,Na2Y3Te4(ClO4)3,-2.4591388616575003
mp-1197768,Ba2LiAl(CN2)4,-0.887706735669167
mp-1197782,K3V5Te4(HO3)8,-1.905941341317272
mp-1197783,ReBi3O8,-1.9090816756249995
mp-1197789,La4In21Pd10,-0.5388956694285713
mp-1197792,CaFe3P3H2O13,-2.451061411043376
mp-1197793,Tm6Al43Cr4,-0.261286723301887
mp-1197797,K3Ta2Cu3S8,-1.3090463352499997
mp-1197798,H2,4.440892098500626e-16
mp-1197804,CuP4S3Br,-0.4414849987400799
mp-1197806,Ba16Re6O37,-2.802233186377119
mp-1197810,Cs6Dy21S34Cl,-2.401344265598326
mp-1197813,Na2DyPWO8,-2.81033192815934
mp-1197821,AlH14SeNO14,-1.47450736025496
mp-1197827,Sr(BiS2)2,-1.246752945714285
mp-1197835,HfMnGa2,-0.3608523853304592
mp-1197848,Cs5As5Se9,-0.6497813795131009
mp-1197849,Na3B2PO5F4,-2.938655412583206
mp-1197850,YbFe5P3,-0.6556706402645491
mp-1197851,Tb2(MoO4)3,-2.726060052058823
mp-1197854,Bi14Mo5O36,-1.865577993909091
mp-1197857,WO3,-2.170742810625
mp-1197860,Nd3Sn13Ir4,-0.5162136559999994
mp-1197864,Lu3Ge13Ir4,-0.4862807970000006
mp-1197866,Cs2U(Si2O5)3,-3.221744995608836
mp-1197875,Ba4NaAl2B8(BrO6)3,-2.9963313608101854
mp-1197880,ErAgS2,-1.6409527011458338
mp-1197890,Li2Ti2(PO4)3,-2.9860200362656646
mp-1197894,Rb2BiMoPO8,-2.359018957005495
mp-1197897,Gd3Ge13Ir4,-0.5299769832500004
mp-1197913,GePb(S2O7)3,-1.8944133965517247
mp-1197916,SrGaBO4,-2.909555453928571
mp-1197930,CsLi2Gd4(BO3)5,-3.2403548549696666
mp-1197932,Pr7Ru3,-0.1926143102499999
mp-1197936,U(Zn10Fe)2,-0.0510506530434781
mp-1197939,CaCO3,-2.6906356517500014
mp-1197947,La2HfS5,-2.3958380910156247
mp-1197952,Tb5IrBr9,-1.694605755166667
mp-1197956,Nd2Sb4Ir3,-0.6993490497222226
mp-1197957,Na3Al(AsO4)2,-2.263250188214286
mp-1197959,CsSb2PO8,-2.234810818041872
mp-1197960,Bi2S2O9,-1.9672526817307696
mp-1197963,K3SmGa3B12S12I,-1.061217538901042
mp-1197970,Cs3LaBr6,-1.9284097231293105
mp-1197972,Er3Ga5,-0.6399205325000001
mp-1197978,K2BiH4Cl5O2,-1.6546571894128574
mp-1197980,CrPb2F7,-2.863009911583
mp-1197982,K2LiIn(MoO4)3,-2.2050127172456144