material_id,pretty_formula,formation_energy_per_atom
mp-1223554,KAlNiF6,-3.1866068816822226
mp-1223555,KGaGe3O8,-2.198749626
mp-1223560,KH2(IO3)3,-1.1059838094326664
mp-1223564,KMg3AlSi3(HO6)2,-2.9847717513745446
mp-1223565,La20Mn8Te7C12,-0.7049209669625829
mp-1223567,KBa2(FeAs)6,-0.4629950828666665
mp-1223569,Li4Zr8V3(P3O16)3,-3.1052168017195765
mp-1223571,La4GdSc15(BO3)20,-3.477101884266666
mp-1223574,KFeSn3O8,-2.073686201000001
mp-1223576,LaCe(Mo3S4)4,-1.290854525333334
mp-1223582,KFeH5(SO5)2,-1.8559456214394727
mp-1223583,KNb5Pb2O15,-2.781683368119564
mp-1223584,KBi3S5,-0.914159655125
mp-1223587,KBaGd(MoO4)3,-2.6346033387777776
mp-1223590,KMgMn2AlGe3(O5F)2,-2.591120112122184
mp-1223592,La9Al5S21,-2.227568513017857
mp-12236,Er3Ga5O12,-2.992825283125
mp-1223605,KPr5(CCl5)2,-2.1995347841999995
mp-1223606,KBa2Zn3B9O19,-2.772093266080883
mp-1223607,KAs3(PbO3)4,-1.8175824789
mp-1223612,Mg2V6Cu4O21,-2.102968745997474
mp-1223613,KAlSi3O8,-3.2494257594615377
mp-1223615,KTa5Pb2O15,-3.026533877902174
mp-1223617,KMg2AlFeSi3(HO6)2,-2.8563881488366665
mp-1223621,KAlSi3Ni3(HO6)2,-2.4087063086472726
mp-1223622,KAlCo3Si3(HO6)2,-2.491749477510908
mp-1223625,KBa3(FeAs)8,-0.4875957876499995
mp-1223630,KBaNa2Ti3Fe(Si2O9)2,-3.11261641585
mp-1223632,KNa2WN3,-0.6184699866271431
mp-1223635,KMn8O16,-1.914479572716856
mp-1223636,KAlSi3O8,-3.252217319461538
mp-1223639,K2MgCuF6,-2.9628625336473338
mp-1223648,K2BrCl,-2.0016995848150003
mp-1223649,KNb2(PS6)2,-1.1069640051554623
mp-1223651,La20Os12C13,-0.2158189462222215
mp-1223658,KAl3Fe2Si2(HO6)2,-2.7950288302381825
mp-1223664,K2H4Pt,-0.4901756429257138
mp-1223667,K2BaSnTe4,-0.9573877595
mp-1223670,La14Au51,-0.6633898441538458
mp-1223679,KBP2PbO8,-2.6327152475750912
mp-1223684,KNaMg3Zn2(Si2O5)6,-3.0942391955204074
mp-1223687,Li3Ce4B12(H12Cl)4,-0.5684338474197181
mp-1223689,K2Cd3SnAs4,-0.3181215756
mp-1223690,KAgSnSe3,-0.5899521351440971
mp-1223694,KBaV3Cd2O11,-2.3809116281527785
mp-1223695,InSnTe2,-0.3012307324999996
mp-1223696,InI2Br,-0.6047831724999999
mp-12237,HoP5O14,-2.843347817017857
mp-1223705,KNbW2O9,-2.4649487100705127
mp-1223710,K2(TaS2)3,-1.5808667204318183
mp-1223711,LaCe(GePt)4,-0.9254120569999996
mp-1223714,K5Sb4,-0.4288172172222222
mp-1223732,InGaCuAgSe4,-0.4419284928385414
mp-1223734,K2La2Sb2S9,-1.537512881608334
mp-1223736,K6Na3Ti2Al2Si8Cl3O26,-3.0452966761055995
mp-1223739,K2Al2B2O7,-3.002046031134616
mp-1223743,Li2Zr4As3(PO8)3,-2.842928264834656
mp-1223744,K2Mg5Cu3(AsO4)6,-2.0766839413166664
mp-1223746,InSb3Pb4O13,-1.8467808867261903
mp-1223747,K2MnH4(I2O7)2,-1.3134774711438082
mp-1223749,InNi2Sn,-0.215730638333334
mp-1223750,K9In9GeSb22,-0.2643788087073173
mp-1223752,K5BrCl4,-2.148220984804
mp-1223753,Ir(N2Cl3)2,-0.5793114253709093
mp-1223754,K(Nb3Se4)2,-0.896955364116667
mp-1223759,K2MgZr(MoO4)4,-2.472626122472221
mp-1223761,La2Ga7Au,-0.584533819
mp-1223762,K6Pd3(BrCl2)4,-1.5362533620990482
mp-1223764,K2Ba5(Si2O5)6,-3.2893832078265293
mp-1223765,HoCu4Ni,-0.2341110416666669
mp-1223766,K2Ba(FeAs)6,-0.3718463130666654
mp-1223767,K2MgH4(I2O7)2,-1.3987073292525332
mp-1223769,K4Ta3NbO12,-3.027700085849999
mp-1223773,K5Bi4,-0.3521218650000001
mp-1223774,K7RbTi8(PO5)8,-3.0597501949542405
mp-1223776,In2AgSe3Cl,-0.6254904455177979
mp-1223780,K5Br4Cl,-1.855259159826
mp-1223786,HoZnSi,-0.6193249433333327
mp-1223789,HoAgSn2,-0.438225005833333
mp-1223790,K3BrCl2,-2.0832374292533333
mp-1223798,InAgTe2,-0.2772226883333335
mp-1223800,K2NbO3F,-2.8949235179914283
mp-1223802,Hf2Al3Zn,-0.4321497525000002
mp-1223803,K6Zn4Sn5S17,-1.1617370125351565
mp-1223804,K2CoH4(I2O7)2,-1.2508523145192
mp-1223811,K2(TaSe2)3,-0.8763996531874994
mp-1223815,HoCuSe2,-1.2080216586718748
mp-1223817,K4MoWO8,-2.261622144428572
mp-1223820,Hf2Al3Cu,-0.4439051100000005
mp-1223828,Hf2Al3Ni,-0.5343971400000006
mp-1223829,Ho4Si3Ge,-0.8290403631249994
mp-1223832,K(SiPt)4,-0.7085182925555552
mp-1223837,In2AsP,-0.2085990971428573
mp-1223845,K(SiPd)4,-0.5400259258888885
mp-1223846,Ho4SiGe3,-0.8478402693750002
mp-1223847,K2PdBrCl3,-1.58048612654
mp-1223850,Hf2CN,-1.508531310595
mp-1223852,InGa(AgS2)2,-0.7982199973958335
mp-1223853,K2Zr(PO4)2,-3.02717411178022
mp-1223854,HoCoRu,-0.2743663250000002
mp-1223855,K2SnHgTe4,-0.5641403457499998
mp-1223861,K2PdBr3Cl,-1.31481460418
mp-1223867,K3I2Br,-1.5758672898333332
mp-1223868,HoCdIn,-0.366990296666667
mp-1223870,Hf2Al3Pd,-0.6320129841666665
mp-1223873,HoSc(BO3)2,-3.497710075916667
mp-1223876,K2ThF6,-3.9288971747933337
mp-1223881,K7Na17(ZnSn2)4,-0.1729306518333335
mp-1223885,K(ThTe3)2,-1.0989209703333331
mp-1223888,InAgSnSe4,-0.3862893503869046
mp-1223891,In3SnAu4,-0.2080265350000001
mp-1223893,InAgGeSe4,-0.3566798832440473
mp-1223894,K5BaTaP4,-0.6019646117532467
mp-1223897,Ho8Sb3O8,-3.148234451842106
mp-1223899,HoAlNi4,-0.5305211316666671
mp-1223900,InAgSeS,-0.5823595272005213
mp-1223905,K2Ti(TeO4)3,-1.998861515055556
mp-1223907,Hg2SeS,-0.3276025338671879
mp-1223908,Hf2Ga3Cu,-0.426176763333333
mp-1223910,HoCoNi,-0.3288007683333329
mp-1223911,InGa(AgSe2)2,-0.4348890370052083
mp-1223913,In2CuAgSe4,-0.4207882853385416
mp-1223917,K2CaMg5Si8(HO12)2,-3.074655532497777
mp-1223919,IrRh,-0.0258714100000005
mp-1223920,K3MgCu2F9,-2.7645035225362227
mp-1223921,K2VCo6Cu2As5O24,-1.71045656665
mp-1223925,HoFeRu,-0.1471219616666665
mp-1223926,Ho2SbO2,-3.014673585500001
mp-1223927,Ho2GaRu,-0.5300092125000004
mp-1223929,InCuGeS4,-0.7962801146428572
mp-1223931,K(Ti3Se4)2,-1.2185640521166663
mp-1223934,HoUTe4,-0.9365242966666668
mp-1223942,HoGaAu,-0.7879019833333333
mp-1223950,HoGaAg,-0.4773953027777781
mp-1223952,Ho2NiSb4,-0.7164318128571432
mp-1223953,K5BaNbAs4,-0.6242453131818185
mp-1223956,Ho2TeS2,-2.11872622925
mp-1223957,K4MgCu3F12,-2.668707704980667
mp-1223960,K(Nb3S4)2,-1.4854068552000002
mp-1223966,Ho2AlFe3,-0.1949667899999999
mp-1223968,Ho2SiGe,-0.8376498137499997
mp-1223973,K7Ti8(PO4)12,-2.993344774718094
mp-1223974,Hg2IBr3,-0.4258954141666667
mp-1223983,LaTi6(PO4)9,-3.1050445910027475
mp-1223985,K2AlMo3(P2O7)4,-2.6716582364183674
mp-1223991,Ho2VPO8,-3.36190441404762
mp-1224,HgO,-0.645726759375
mp-12240,Na2LiBe2F7,-3.352423333333056
mp-1224004,Ho2Ga3Cu,-0.5955661749999995
mp-1224006,HoCuPbS3,-1.4322430615625
mp-1224015,La3InGe,-0.5808883787500001
mp-1224021,Ho3Er3MnBi2,-0.4124524021839085
mp-1224023,K3H(SO4)2,-2.223519544562142
mp-1224026,K3ReMoO8,-2.301796905692308
mp-1224029,K3Ti8O17,-3.315808535008929
mp-1224034,Ho2Al3Fe,-0.406491273333333
mp-1224037,La2InCuS5,-1.800341876180556
mp-1224039,K4BaNb5O15,-2.947143176029999
mp-1224043,In2AgS3Br,-0.8092872825297626
mp-1224044,K2(NbS2)3,-1.59012643725
mp-1224047,K2(NbSe2)3,-1.0273870845511368
mp-1224048,InAgSnS4,-0.7908963344047615
mp-1224049,K3H(SeO4)2,-1.6779255944505356
mp-1224051,In5SnSb3Te,-0.1165119194999995
mp-1224056,Ho3Sc2S7,-2.403130260989584
mp-1224063,K4Ba2SnAs4,-0.6785741860909088
mp-1224067,HfZrW4,-0.1561068250000019
mp-1224070,HgBrCl,-0.7321729485866667
mp-1224076,In2AgS3Cl,-0.947904788709762
mp-1224080,KCa2Mg2V3O12,-2.8390474573583333
mp-1224082,K(Ti3Se4)4,-1.2299868948448274
mp-1224083,In3Ag3(HgTe4)2,-0.2549795556249998
mp-1224088,Ho(AlFe)6,-0.3899006292307682
mp-1224091,InCuTe2,-0.2651020974999998
mp-1224099,Ho2Ga3Ni,-0.6455459299999996
mp-12241,Ca11Sb10,-0.9470399157142856
mp-1224100,K4Ba2SnSb4,-0.6369273024545457
mp-1224102,InCuSnS4,-0.8133281896428579
mp-1224104,HoTiFe11,-0.0813863746153836
mp-1224106,In3Cu(AsSe)2,-0.3209308393359373
mp-1224110,Ho6Mn(GeS7)2,-1.888688677104573
mp-1224111,K4Zn2Sn21,-0.1641662282222216
mp-1224112,Ho8(AlGe3)3,-0.7309809260000002
mp-1224114,K4Ba2SnP4,-0.6017246255714284
mp-1224115,Ho2P7Rh12,-0.9370079347619056
mp-1224116,K(Zr3Te4)4,-0.9570132332068972
mp-1224118,Na17(Mo15S19)4,-1.091141643872549
mp-1224120,La12Mn3(AlSe7)4,-1.5677828035019263
mp-1224121,HfZrS6,-1.691078292343751
mp-1224124,In4P6Pb2O23,-2.465498337433673
mp-1224126,K2AlSn(PO4)3,-2.757236770090225
mp-1224129,InCuSnSe4,-0.3889988513392853
mp-1224130,Ho(Fe5Si)2,-0.2520704684615384
mp-1224131,K7Hg31,-0.1764151479210526
mp-1224138,In2CuAgS4,-0.7785917319791666
mp-1224144,K2VOF4,-3.03166297931375
mp-1224145,K2Mo2P2O11,-2.489974458787816
mp-1224147,InGa(CuSe2)2,-0.4508529524218749
mp-1224154,K2P2PdO7,-2.3862619136994057
mp-1224155,In3SnAu12,-0.1052692743749998
mp-1224157,K2UF6,-3.643928904793333
mp-1224160,K2SrTi10O22,-3.422979911719048
mp-1224161,K2Mg5(Si2O5)6,-3.2030602663299312
mp-1224164,Ho6Mg(GeS7)2,-1.9585642411775368
mp-1224170,HfZrC2,-0.8689307650000018
mp-1224171,Hg11I2BrClO4,-0.4690866309610524
mp-1224173,HfZn2Ga,-0.3448057525000001
mp-1224175,In3CuSe5,-0.479830762413194
mp-1224178,Ho(CuS)3,-1.1348819834821435
mp-1224179,K3NaP4(H2O7)2,-2.403595669048682
mp-1224183,K4Ni7(AsO4)6,-1.6466695054146332
mp-1224184,HfZrB4,-1.003824237222222
mp-1224188,HfZrFe4,-0.3153908800000001
mp-1224189,Ho7Mg3Rh2,-0.3923612370833342
mp-1224190,Ho2As7Rh12,-0.7032212623809533
mp-1224193,HfZrMo4,-0.1553386099999999
mp-1224195,HoUTe6,-0.7112497587500002
mp-1224198,K4Ba2SnBi4,-0.5498611265454543
mp-1224199,Ho4Co3,-0.1874835526190477
mp-1224209,HoTaTiO6,-3.668285198055555
mp-1224210,InCuGeSe4,-0.361523665625
mp-1224211,K3Ag9(SbS3)4,-0.6506042198750005
mp-1224217,Ho2(B2Rh3)3,-0.6473623929411758
mp-1224220,KNaV6(PbO3)8,-2.12784372645
mp-1224223,In11S16,-0.9207048018518518
mp-1224225,K3TaNbCu3S8,-1.2949995368125
mp-1224227,In2CuAg(SnS4)2,-0.7940738941666672
mp-1224228,HfZrCN,-1.447763968095
mp-1224229,K10Zn4Sn4S17,-1.270440378375
mp-1224231,In9Ag17,-0.0260515167948719
mp-1224236,K3W2(O2F3)2,-2.6822626200760005
mp-1224240,HfUC2,-0.5407912400000026
mp-1224247,HfZrN2,-1.9174401961900005
mp-1224251,K3Er7S12,-2.333839455522728
mp-1224256,K5NaNi5(P2O7)4,-2.3987151992249243
mp-1224271,HfTeSe,-1.0753550507812502
mp-1224276,K2VOF4,-3.0325048571262503
mp-1224283,HfTaB4,-0.8461952322222229
mp-1224285,HfTaC2,-0.8060937500000023
mp-1224290,K4TiSn3(PO5)4,-2.6556220745714274
mp-12243,Rb3SiF7,-3.347204126439091
mp-1224303,HfAl2Zn,-0.38232538875
mp-1224317,Hf2SiAs3,-0.7294154008333334
mp-1224320,K3Na9Sr4(BO2)20,-2.821872390885964
mp-1224321,HfAlZn,-0.371587603333334
mp-1224322,HoInGe2O7,-2.571123666704546
mp-1224323,KNa3Al12H24(SO7)8,-2.296242548460384
mp-1224324,Hf2Al3Ag,-0.3585793105555552
mp-1224327,Hf2Al3Au,-0.5216431816666661
mp-1224328,HfNbB4,-0.8609773205555555
mp-1224331,Hf4AgPd,-0.3219881738888889
mp-1224333,Hf2HC,-0.6895751696550008
mp-1224334,HfNbC2,-0.7274385424999998
mp-1224337,HfScGe4,-0.5432280741666679
mp-1224343,In4CuAg3Te8,-0.27683251375
mp-1224346,Hf3ScSi4,-0.8158554106249998
mp-1224350,Ge(SbTe2)2,-0.1127521728571423
mp-1224359,K5Sm(MoO4)4,-2.4164637410897427
mp-1224365,KIn7S8,-0.9390832567500008
mp-1224373,GeTePt,-0.4518050491666668
mp-1224376,Ge2SeS,-0.3957766551171877
mp-1224384,Hf4CN3,-1.7318947046424995
mp-1224386,Hf4GeSb7,-0.4205803929166667
mp-1224388,Hf3N2,-1.623762266951999
mp-1224390,HfAu9,-0.1885499529999997
mp-1224392,K3In(PO4)2,-2.579084494367347
mp-1224394,HfUN2,-1.7536162661900008
mp-1224399,Hf4C3N,-1.2392906465475004
mp-12244,Cs3TiF7,-3.446772053829373
mp-1224400,InCuSeS,-0.6149243101171873
mp-1224402,HfAlMo,-0.3278158583333332
mp-1224411,GdYV2O8,-3.1906014261111104
mp-1224413,H3Pd4,-0.1359445708371426
mp-1224422,Hf3Ga3Pd2Pt,-0.8119643105555548
mp-1224434,La9In(SiS7)3,-2.125582966783088
mp-1224435,Hf2V3Ru,-0.3003759225
mp-1224443,K3Er4(CuTe2)5,-0.9193164992727266
mp-1224444,Hf2Te3,-0.7626623860000002
mp-1224446,Hf3TaFe8,-0.2891884024999989
mp-1224455,In2(PSe3)3,-0.241765136200574
mp-1224463,HoCo3P2,-0.9372053181349208
mp-1224472,Ho15Si9C,-0.6698402539999989
mp-1224475,HfPt4,-0.8723499450000005
mp-1224476,Ho3(NiRu2)2,-0.3847256377777776
mp-1224478,K2GaP2H3(O4F)2,-2.4440006828546026
mp-1224479,GdYScSbO7,-3.387606946553031
mp-1224480,Hf3ScGa12,-0.4050419315624989
mp-1224485,Hf2Se3,-1.2766409499062497
mp-1224490,Hf2Sb2Pb4O13,-2.428504278869048
mp-1224491,K4Sn21Hg2,-0.1560247730370363
mp-1224497,K15Si92,-0.0127405314485979
mp-1224498,Hf5Zr5Ga6,-0.4821201249999998
mp-12245,Rb3TiF7,-3.4378392864390914
mp-1224505,K6InP3,-0.3294445453714285
mp-1224506,Hf(AlNi4)3,-0.4567247537500005
mp-1224509,GdY3V4O16,-3.194589120416667
mp-1224510,Hf(Nb2B3)4,-0.7958945490476188
mp-1224517,Hf3TePb4O13,-2.6319964883928577
mp-1224518,KGd(NbCl3)6,-1.8952035496800008
mp-1224527,GdUN2,-1.6412156261899984
mp-1224528,In5CuTe8,-0.3026218364285711
mp-1224533,K5HfIn(MoO4)6,-2.337273183243243
mp-1224534,K4BaTi6S20O,-1.6703828123671869
mp-1224537,GdTiCdSbO7,-2.7971377103409107
mp-1224538,K5LuHf(MoO4)6,-2.495690556621621
mp-1224540,Hf(GaNi4)3,-0.352035190625001
mp-1224541,K2TiCr(PO4)3,-2.8573737969323303
mp-1224542,K3In(PO4)2,-2.5801663157959185
mp-1224548,K3Na7Mg2H12S6(NO18)2,-2.001048209744362
mp-1224550,In10CuAgS16,-0.894414744404762
mp-1224551,K4NaNb5O15,-2.854803526229999
mp-1224553,K8Cu9S8(ClO18)2,-1.8627762522304765
mp-1224555,Ho2PbS4,-2.008170503392858
mp-1224556,Hf3TiTe20,-0.4232097962499998
mp-1224563,Ho14Ag51,-0.2392249309230771
mp-1224564,K4BaTi6S20O,-1.6703893256484372
mp-1224571,GdThN2,-1.7699092686900002
mp-1224574,K2YHf(PO4)3,-3.2161366844761914
mp-1224582,K3Na(B3O5)4,-2.8165983692314813
mp-1224589,K2Mg3Zn2(Si2O5)6,-3.0981742529285703
mp-1224593,La14Zn45Si,-0.3603726446666669
mp-1224597,K2Nb2As2O11,-2.4216823693970584
mp-1224599,GdYH4,-0.7737968713022217
mp-1224602,H9Au(ClO)4,-1.201988401423334
mp-1224604,K2Na4Li2Ti4Mn3Fe(SiO3)16,-3.0522389650147352
mp-1224611,K2YTi(PO4)3,-3.1017654482919794
mp-1224614,K2YbTi(PO4)3,-2.9418618670200503
mp-1224615,GdDyNi2,-0.4291400124999995
mp-1224616,K5U(PS4)3,-1.295257560748299
mp-1224618,Ho5Co19P12,-0.8869887516071431
mp-1224619,GdAlSi,-0.622949879999999
mp-1224622,GdZr3F15,-4.124716727781579
mp-1224624,K9Ta2VS12,-1.5687497698750004
mp-1224631,La5Se6N,-2.015440642307708
mp-1224636,K3Rb5Te4H24(SO10)4,-1.7428015275734992
mp-1224638,K10NbInAs6,-0.4616107691666669
mp-1224639,GdAlZnGe2,-0.4474666169999992
mp-1224641,GdSiPd,-0.908000398333332
mp-1224645,GdDyAl4,-0.520326888333333
mp-1224647,La3Nd11(Si3O13)3,-3.7019575383669343
mp-1224648,H2PtPbI6O19,-0.934511196585862
mp-1224649,In6Te10Pb,-0.3269102123529413
mp-1224654,GdTiNbBi2O9,-2.871379806517857
mp-1224655,GdY(FeO3)2,-2.9202125220833324
mp-1224656,La5Ga4SnSb10,-0.6994781262499998
mp-1224667,InSb3(PO4)6,-2.38985367460084
mp-1224669,K16Tl22Pd,-0.1439699350769227
mp-1224677,Hf4NiRh,-0.4812133949999999
mp-1224680,Gd2SbO2,-2.9467191475000005
mp-1224681,GdAgSn2,-0.4664975433333334
mp-1224689,GdErCo4,-0.2093257266666661
mp-1224691,Fe2SbTe3,-0.1410733258333335
mp-1224696,In(CoSb3)16,-0.1755689232307689
mp-1224706,Gd2GeMoO8,-2.9428834016666663
mp-1224708,Fe2Pb(SeO3)4,-1.4966536091776306
mp-1224709,K(Nb2Cl5)4,-1.7264349666045975
mp-1224710,Gd3YV4O16,-3.1873137588888887
mp-1224711,Gd2MnSbO7,-2.9252055608513787
mp-1224717,Gd3SOF5,-4.037196860532501
mp-1224721,LaFe(Ni2Ge)4,-0.3943714807142849
mp-1224722,K14P16Pd9O56,-2.324676401780452
mp-1224723,Gd3Y13O24,-3.9675281820833335
mp-1224731,Gd6S3(OF4)2,-3.8423515274418425
mp-1224733,Gd2ZnAg,-0.3419099420833333
mp-1224734,La20S29O,-2.6423389751375
mp-1224737,Fe2CuNiPt4,-0.1698949412499999
mp-1224739,GdDy3Ni4,-0.4425218712500003
mp-1224743,Fe2Ni(PO4)2,-2.2804396409340657
mp-1224744,Gd3Si2BrO8,-3.5257791485714307
mp-1224747,GdYCu4,-0.2527984188888877
mp-1224749,La9In5S21,-2.0010496057321427
mp-1224750,GdDy,0.009750395000001
mp-1224756,Hf14Cu51,-0.1557627010769229
mp-1224757,In4Bi3S10,-0.8306445993382359
mp-1224759,Gd2FeSbO7,-2.8941388457954544
mp-1224768,Fe3NiAs8,-0.261041583333333
mp-1224770,Fe3NiAs4,-0.2390332474999992
mp-1224771,Fe3NiP4,-0.5670442680357137
mp-1224772,HNO3,-1.0077367502
mp-1224774,La9Ga5S21,-2.0539307574464285
mp-1224776,Gd3Sc2S7,-2.411378022656251
mp-1224779,GdAlNi4,-0.5105659383333337
mp-1224783,GdDyNi2,-0.4317064183333343
mp-1224786,GaSbO4,-2.06471357
mp-1224791,GaNi2Pt,-0.3776119900000001
mp-1224794,Fe22B6W,-0.1894210110344819
mp-1224796,Ga2S3,-1.056708453875001
mp-1224806,K5AlCr4(MoO4)10,-2.2566136550833327
mp-1224808,K2SnHOF6,-2.66043646391
mp-1224820,GaAgSeS,-0.6418991772005214
mp-1224823,GaGePt6,-0.3850915299999995
mp-1224824,Mn5Cu(Te2O5)6,-1.6328181904286645
mp-1224833,Gd2MnCoO6,-2.847137063811517
mp-1224834,GaSiNi6,-0.374668911875001
mp-1224837,Ga2CuAgSe4,-0.455784756588542
mp-1224845,GaAgSeS,-0.6400689759505207
mp-1224848,GaAgSnSe4,-0.4090378489583329
mp-1224849,Ga2Ag2TeSe3,-0.4039655292122397
mp-1224851,GaCuGeSe4,-0.3892622499107143
mp-1224860,GaNi6Ge,-0.2902642575000005
mp-1224861,Ga2CuAgTe4,-0.2789267479166666
mp-1224863,GaCo4Ge3,-0.2321610249999999
mp-1224864,Ga2Ag2Se3S,-0.5461424096028646
mp-1224869,Gd2C,-0.2562764100000005
mp-1224871,Ga3GePt8,-0.4879671883333329
mp-1224876,GaAgSnSe4,-0.4071459846726186
mp-1224890,FeSb3Pb4O13,-1.8261679101785708
mp-1224894,GaH6N2F3,-1.4502238895875006
mp-1224896,FeSb6Pd,-0.1899667074999991
mp-1224898,GaAg(GeSe3)2,-0.3285324522395839
mp-1224902,GdErAl6,-0.4291319025
mp-1224905,Gd7Y5Nb4O28,-3.727574408674244
mp-1224908,FeNiSb6,-0.1304473337499994
mp-1224914,GaSb3Pb4O13,-1.8596945572023809
mp-1224918,GdHoAl6,-0.4221896106249998
mp-1224922,GaCuSnSe4,-0.4172288741964282
mp-1224937,GdYCo4,-0.1434549638888889
mp-1224940,Ga3Ni12Sn,-0.2579721612500005
mp-1224942,Gd3ErNi4,-0.42505886
mp-1224943,K2PH3SO8,-2.1669567565704284
mp-1224947,FeNiPt6,-0.1364917512499994
mp-1224948,Ga4B2O9,-2.4502305478611115
mp-1224951,FeNiAs4,-0.2591453583333323
mp-1224963,K2Sc2P2WO12,-2.976796659507519
mp-1224978,FeCo3S8,-0.8308251891666666
mp-1224986,FeNiP6,-0.4079669820535709
mp-1224996,Gd8Sb3O8,-3.086235007105264
mp-1224998,GaBi3Sb2O11,-1.8952635088970584
mp-1225006,HoP2(HO2)5,-2.284723942096825
mp-1225033,FeMo3PtN,-0.304670788729999
mp-1225037,Er2Al3Ga,-0.523664623333333
mp-1225041,DyZnSi,-0.6299615599999994
mp-1225043,DyYFe4,-0.0689395638888884
mp-1225044,Er2C,-0.3166991999999998
mp-1225049,K18Na46Tl31,-0.1181869268842107
mp-1225055,Er2Co3Cu,-0.2233776158333332
mp-1225058,Er2AlFe3,-0.2136075333333321
mp-1225059,FeCl4,-0.982297216608
mp-1225066,GdErAl6,-0.4270471379166665
mp-1225069,Er2AlCo3,-0.3409230124999993
mp-1225070,Er2CuSi3,-0.6891356291666657
mp-1225072,Er2CuNi,-0.3893987525
mp-1225073,Ga6AgSb7(TeCl3)8,-1.0881839542733331
mp-1225082,Gd3Y(FeO3)4,-2.912787031416668
mp-1225084,K2Sc2Mo(PO6)2,-2.979057060823308
mp-1225089,GaFe2Co4Si,-0.3141435268750001
mp-1225092,Er(AlFe)6,-0.3925237084615378
mp-1225099,FeAg2Sn3S8,-0.7367656386904758
mp-1225103,Er2(B2Rh3)3,-0.6462972447058817
mp-1225110,DyUTe6,-0.7260867850000006
mp-1225114,GaFe4Co8Si3,-0.3414612221875002
mp-1225117,La9Ce3Si8(S8I)4,-1.905332391964286
mp-1225118,Er(Fe5Si)2,-0.2553768576923075
mp-1225120,Er(CuS)3,-1.1334929627678574
mp-1225126,Gd2Mn3Sb3O14,-2.4592739365611607
mp-1225149,Gd5Si2BO13,-3.674448426884921
mp-1225159,Er2CrSbO7,-3.0704711562500004
mp-1225165,Er2As7Rh12,-0.6984511214285719
mp-1225167,Gd3Y3Fe23,-0.0393293665517242
mp-1225181,DyYMn2O6,-3.059613515873035
mp-1225213,Gd8MgAlNi2,-0.2545037240277802
mp-1225222,Er(CuS)3,-1.1305881370535715
mp-1225227,Fe3Co3Si2,-0.3798197868750002
mp-1225229,Gd(Fe5Si)2,-0.2454733515384613
mp-1225231,Gd2VFeO6,-3.0902159687500004
mp-1225241,Ho20In40Rh19,-0.6016776316455693
mp-1225250,Er2(AlNi)5,-0.6324567636111106
mp-1225259,K5Mo8As(H3O16)2,-2.0023017372446152
mp-1225265,DyErAl4,-0.5111189249999999
mp-1225289,Dy2TeS2,-2.1230885972500007
mp-1225297,DyAlNi4,-0.5279193316666664
mp-1225307,DyCu5,-0.1909294566666659
mp-1225310,Dy2Al3Fe,-0.4008988949999998
mp-1225313,Dy2NiSb4,-0.7322568571428576
mp-1225323,Dy2InAg,-0.3892449633333332
mp-1225325,Dy2Ga3Cu,-0.5975327433333332
mp-1225327,DyCuPbS3,-1.4318311040625005
mp-1225328,Dy2PdPt,-1.1163450937499997
mp-1225344,Dy2MnSbO7,-2.9673113640331987
mp-1225346,Dy3SOF5,-4.0991733295325
mp-1225352,Ga3Fe4Co8Si,-0.2807227984375
mp-1225357,DyAl7Fe5,-0.3968610738461546
mp-1225361,Dy2(B2Rh3)3,-0.6493743705882347
mp-1225362,Dy2CO5,-3.272732717656249
mp-1225366,Dy2FeCo3,-0.1944190425000004
mp-1225370,DyCdIn,-0.3809944633333337
mp-1225372,Dy2Si9B36C,-0.2072700521874999
mp-1225373,Dy2P7Rh12,-0.9379748261904748
mp-1225380,Dy6Mg(GeS7)2,-1.966711808568841
mp-1225383,Dy2YTaO7,-3.863221497916668
mp-1225385,Dy5Sc5(Si5Ir2)4,-0.8981511238157883
mp-1225388,DyBi3(Ru2O7)2,-1.820516644886364