material_id,pretty_formula,formation_energy_per_atom
mp-15652,Rh3(PbS)2,-0.5664215680357135
mp-15653,CeSi2Ni,-0.8331254024999994
mp-15656,Si4Ir3,-0.6713628371428574
mp-1565615,NaCaFe2(SiO3)4,-2.925455288500001
mp-15659,Sb2Pt3,-0.3607301960000001
mp-1566,SmFe5,0.0057579077777785
mp-1566038,Ca2MnSbO6,-2.620977314311517
mp-15661,Sc4C3,-0.4855064028571436
mp-15668,NaSe,-0.8303679861718751
mp-15669,Ti3Te4,-0.7185192871428561
mp-1567,ThNi5,-0.408462138333333
mp-15670,Y5S7,-2.4585162798784737
mp-15671,Re3B,-0.2033959058333341
mp-1567250,CaNi(GeO3)2,-2.2492784467499995
mp-1567268,CaMn(GeO3)2,-2.460097952811517
mp-1567273,MgMn(GeO3)2,-2.3447600706448504
mp-1567274,CaV4O6,-2.527811304772728
mp-1567940,MgNiP2O7,-2.5806517817478354
mp-1567945,ZnCo(GeO3)2,-1.9139238340000009
mp-1568,K3P11,-0.3153970863061219
mp-15681,CrAs2,-0.1215388599999987
mp-1568152,CaLaTiFeO6,-3.258377593
mp-15684,K2CuAs,-0.348002739
mp-15685,Na2CuAs,-0.37276143875
mp-1568591,MgMnP2O7,-2.793602488621943
mp-15686,Li2CuAs,-0.5190062345833333
mp-15687,KZnAs,-0.4685154160000001
mp-1568793,MgFeP2O7,-2.736734060611472
mp-1568804,Y2Fe2O7,-2.688202177765153
mp-1569,Be2C,-0.2319168466666674
mp-1569454,MgCo(GeO3)2,-2.210885573083334
mp-1569484,CaMnP2O7,-2.900530666728004
mp-15695,YAsPt,-1.2073791136111112
mp-1569682,MgNi(GeO3)2,-2.145953849833333
mp-1569694,Na6NiO4,-1.3664219786363636
mp-1569717,CaVP2O7,-2.920909052126623
mp-15698,Sr5As3,-1.0510950479166663
mp-1570,YFe2,-0.0626159011111108
mp-15700,Zn3As2,-0.1444279830000003
mp-1570154,CaCo(GeO3)2,-2.31825825125
mp-15703,BeCN2,-0.5747170836900004
mp-15704,BeSiN2,-1.4121361811899993
mp-15706,LuB2C,-0.5617798938541663
mp-15707,TbB2C,-0.5205469410416672
mp-1570799,MgCrP2O7,-2.773306897202381
mp-1570825,ZnCrP2O7,-2.474274068717533
mp-15709,LuCo3B2,-0.5424166102777773
mp-1571,PrPd3,-0.7575544712499998
mp-1571054,CaCrP2O7,-2.8800679596266234
mp-1572,GaSe,-0.5911793961718748
mp-15724,KNa2Sb,-0.4302238445000002
mp-15727,La(P3Ru)4,-0.6863591163445377
mp-15728,MgAg(PO3)3,-2.5484254019557824
mp-1573,Sn2Pd,-0.4013718812499996
mp-1573242,CaFeP2O7,-2.853037447581169
mp-15733,CaTaAlO5,-3.4955531882812494
mp-15734,KMn4(PO4)3,-2.5747480290587483
mp-1573681,MgFe(GeO3)2,-2.293454597083333
mp-1573889,Na2FeO3,-1.7255378556249994
mp-15739,BaZn2(AsO4)2,-2.144612981538462
mp-15740,SrZn2(AsO4)2,-2.140516187051282
mp-15743,Sr2CeO4,-3.5022606354761905
mp-1574300,V2OF5,-3.059981819441667
mp-1574470,Mg2Nb2FeO8,-2.8967900978205137
mp-1574993,V2OF5,-3.060669139025
mp-15750,TaAgP4O13,-2.603046527572055
mp-15753,Ba3(LiAs)4,-0.9279415496969696
mp-1575580,K3FePCO7,-2.33531561587088
mp-1575878,Ca3Fe2O7,-2.5005006553125
mp-1576,TmNi2,-0.4978889427777784
mp-15761,Ba4Ti12O27,-3.51557220741279
mp-15776,Zn(GaSe2)2,-0.6455994591964286
mp-15777,Zn(GaTe2)2,-0.383270196428571
mp-1577734,CaV5O7,-2.46312963221154
mp-15778,MgNiSb,-0.4076065861111111
mp-15779,Mg2SiNi3,-0.471027825277778
mp-1578,V3Rh,-0.329354466249999
mp-15780,MgPPt5,-0.5814414288435371
mp-15781,KLaS2,-2.2439695635625005
mp-15782,KPrS2,-2.1644314335625
mp-15783,KSmS2,-2.1906644981458334
mp-15784,KGdS2,-2.214640489812501
mp-15785,KDyS2,-2.2125107323125004
mp-15786,KHoS2,-2.212768534812501
mp-15788,LiYS2,-2.1812386590625
mp-15789,LiDyS2,-2.1793981257291666
mp-15790,LiHoS2,-2.182125163229167
mp-15791,LiErS2,-2.188089615729167
mp-15792,LiGdSe2,-1.7007543478385418
mp-15793,LiTbSe2,-1.6925172828385415
mp-15794,LiYSe2,-1.7012232386718749
mp-15795,LiDySe2,-1.6936900778385415
mp-15796,LiHoSe2,-1.6934479078385416
mp-15797,LiErSe2,-1.6927468053385413
mp-1579778,Ca3Co2O7,-2.269132028229166
mp-15802,Tm2MgSe4,-1.6892277156250006
mp-15803,Y2MgSe4,-1.7022175056249995
mp-1580470,K3CoPCO7,-2.268495665486264
mp-15805,Mn3ZnN,-0.280972705269103
mp-1580697,Ca3Co2O7,-2.2647889132291663
mp-15809,Cr2B,-0.3709085561111098
mp-1581,As2O3,-1.6385042737500002
mp-15812,Mn3Mo3C,-0.0783096266379297
mp-15813,Mn3W3C,-0.0720372084236434
mp-15819,Mn3Al9Si,-0.2734377383819621
mp-1582,As2O3,-1.63205278425
mp-15820,LiHoGe,-0.7149049911111105
mp-15821,LiNdGe,-0.6853323066666669
mp-15822,LiSmGe,-0.7020108222222221
mp-15826,Lu2Co3Si5,-0.7631495825000002
mp-15827,Ho2Ge2Os,-0.6986852509999991
mp-15833,Zn4P6SN12,-0.7540995579614587
mp-15837,Nb5Se4,-0.6695217465972215
mp-15839,NdSbPt,-1.109034783333333
mp-1584,YbIr2,-0.6255885705555558
mp-15840,BaBPO5,-3.1266982258110105
mp-15842,Nb2Co12P7,-0.6475133319047621
mp-15843,Ge9Pd25,-0.4570192361764706
mp-15845,SrLi4N2,-0.547462839727619
mp-15846,Lu5SbPd2,-0.795948348125
mp-1585,V3Co,-0.1973809849999988
mp-15856,DyRh3C,-0.5211530080000003
mp-1586,NdSb,-1.1820560725
mp-15865,RbScAsO4F,-2.848291426086249
mp-15866,SrV3P4O17,-2.743524836988096
mp-15886,Na2US3,-1.6502430590625004
mp-15887,Sr2YIrO6,-2.7800145524166675
mp-15888,Ba2YIrO6,-2.774834436083333
mp-15889,Ba2LaIrO6,-2.7210322282499995
mp-15895,Cu2SiS3,-0.7713829607291665
mp-15896,Cu2SiSe3,-0.2805643003385416
mp-15897,La4Si2S3O7,-3.360717133164062
mp-15898,Dy2Co3Si5,-0.7750484290000003
mp-159,Nd,0.0090101799999997
mp-1590,Be12Cr,-0.0502597215384613
mp-1591,Al4C3,-0.0920805571428573
mp-15910,Re2SbO6,-1.9333696619444445
mp-15919,BeAgPO4,-2.3882235097959184
mp-1592,Ag2Te,-0.0618677038888891
mp-15939,SrAl2B2O7,-3.272579794340279
mp-15949,Li(NiGe)6,-0.3215914100000007
mp-1595,Nb2O5,-3.0375925594642856
mp-15950,Li(SiNi)6,-0.4814042874358972
mp-15951,BeF2,-3.5715468569044444
mp-15953,P2Rh,-0.6495420440476186
mp-15954,As2Rh,-0.5108124058333333
mp-15957,Sc15C19,-0.41383903617647
mp-15958,Nb3VS6,-1.4909858723750005
mp-15960,Li5AlO4,-2.524146393583333
mp-15963,HfPRu,-1.0765987461904762
mp-15964,Hf3Sb,-0.3710117831249988
mp-15968,Sm(CoSi)2,-0.7815769946666663
mp-1597,UO2,-3.7606412641666673
mp-15973,Cr2HgS4,-0.9453494675000006
mp-1598,Na3P,-0.3395264321428568
mp-15985,Zr3(Cu2Ge)2,-0.4860030399999999
mp-15986,Hf(CuP)2,-0.6150133694285721
mp-15987,Hf3(Cu2Si)2,-0.4995932933333336
mp-15988,Li2CuSb,-0.4247896970833333
mp-15994,Hg(PO3)2,-2.2099493778769843
mp-15998,RbV(CuS2)2,-1.1652098050000008
mp-15999,Li3AuS2,-1.2603041260416668
mp-160,B,0.0
mp-16000,Cs5Ti6AgSe27,-0.845223953237686
mp-16001,Rb5Ti6AgSe27,-0.831461476131143
mp-1601,TaRu,-0.3195343399999988
mp-1602,SiS2,-1.1188939170833336
mp-16025,Y2(SO4)3,-2.779535499914215
mp-1603,TmGa3,-0.5186299283333331
mp-16031,Sn3N4,-0.0074515570742852
mp-16032,Pr2TeO2,-3.1422706405000014
mp-16033,Sm2TeO2,-3.199800913833333
mp-16035,Gd2TeO2,-3.2095591705000004
mp-16036,Tb2TeO2,-3.2495966905
mp-16037,Dy2TeO2,-3.2542574905
mp-1604,Pt3O4,-0.8356197321428576
mp-16043,Mg(As2Rh3)2,-0.5385243130303029
mp-16044,Ca(As2Rh3)2,-0.665653531363635
mp-16045,Sr(As2Rh3)2,-0.6374232187878784
mp-1605,Ag3O4,-0.4146473157142856
mp-16055,KLi3Zr2(Si2O5)6,-3.2720686306354154
mp-16057,Er2Cu(GeO3)4,-2.5408474497368414
mp-1606,NbAu2,-0.117234483333334
mp-16060,AgAuF4,-1.4250217455155554
mp-16061,Sr6Sb6S17,-1.4321642871767235
mp-16066,Yb(Ni2P)2,-0.777283493401361
mp-1607,YbCu5,-0.2269358094444443
mp-16083,Ce3Co29(Si2B5)2,-0.4160013373550728
mp-16088,Tb3Co29(Si2B5)2,-0.3960746228985496
mp-16092,Tm3Co29(Si2B5)2,-0.4254087781159413
mp-16093,Lu3Co29(Si2B5)2,-0.4004976601811585
mp-16096,Tl(TeMo)3,-0.2889215264285708
mp-16097,CeSc3(BO3)4,-3.452007083416666
mp-1610,TbS,-2.3384475065625
mp-16107,Rb3P6N11,-0.8141626596304292
mp-16108,Cs3P6N11,-0.8046048770700835
mp-16116,RbSm2CuSe4,-1.5016062523177078
mp-16118,RbDy2CuSe4,-1.493286969609375
mp-16126,RbNa2Ge17,-0.074335665625
mp-16135,Sm3NbS3O4,-3.0738474981249984
mp-16136,Sr3TaGa3(SiO7)2,-3.109245155543479
mp-16137,K4CaU3O12,-3.2873050580999994
mp-16140,Na3TiP8O23,-2.6745305024234702
mp-16156,Sr(Ni5P3)2,-0.6293547495938374
mp-16159,Pr4Si2S3O7,-3.2758208250390632
mp-16160,Sm4Au2O9,-2.800725631805556
mp-16163,Pr3ReO8,-3.238927357708332
mp-16164,Dy3Si3O10F,-3.73154864021706
mp-16165,Ho3Si3O10F,-3.736224095069999
mp-16179,SrCu2GeSe4,-0.6935364545052081
mp-1618,PPd6,-0.3166472940816324
mp-16180,Na6S2O9,-2.184586756323529
mp-16181,Li6Ca12Re4N16O3,-1.3260604894348778
mp-16183,Tl2B2Se7,-0.2306730857339008
mp-16184,Rb2B2Se7,-0.5195001016429924
mp-16185,Mn6AgP7O24,-2.5139625667638
mp-16189,Tm4Zn5Ge6,-0.5246500138888891
mp-1619,Ba3Si4,-0.4091890550000003
mp-16190,Lu4Zn5Ge6,-0.4977814469999998
mp-16194,Rb2SiO3,-2.6420505045138887
mp-162,Yb,0.0028019033333333
mp-1620,Si2W,-0.3472830500000003
mp-16209,K3La(PS4)2,-1.4736788759744903
mp-16225,Y3Si3Rh,-0.9507925907142852
mp-16226,TaS2,-1.48360120875
mp-16227,Zn3Ni2Ge,-0.2325285937499999
mp-1623,ErS,-2.2822091065625
mp-16230,Tb5Sb3,-0.9365706856249992
mp-16234,CsAg3Se2,-0.4298447512697561
mp-16236,KAgSe,-0.6650922245590278
mp-16237,La(SiAg)2,-0.4677143623333336
mp-16238,Li2AgSb,-0.4556986254166664
mp-16245,CaSbAu,-0.8028522883333332
mp-16250,Th(SiAu)2,-0.5533165879999998
mp-16251,Yb(SiAu)2,-0.5248418733333331
mp-16252,BaCaGe,-0.5866770091666668
mp-16253,BaCaSi,-0.4200588633333335
mp-16254,BaCuP,-0.7283925645238097
mp-16258,CaCdGe,-0.503314556111111
mp-16259,Ca(GeIr)2,-0.6700015569999997
mp-16260,Ca(GePd)2,-0.7195448990000003
mp-16261,Ca(GeRh)2,-0.8127073209999999
mp-16263,CaZnGe,-0.5342616233333336
mp-16264,LiCaSb,-0.9440921363888884
mp-16266,CaZnSi,-0.4542067249999994
mp-16267,Dy2CdS4,-2.0444303360714287
mp-16272,Ce(FeP3)4,-0.6491124134033609
mp-16280,Ca2Sb2O7,-2.6052863867045457
mp-16281,Cd2Sb2O7,-1.794751209886364
mp-16283,KNa2Li3Fe2(Si2O5)6,-2.99437526321
mp-1629,Th2Au,-0.4203178233333335
mp-16291,NaZr2PdF11,-3.4098791302060003
mp-16297,Sc3SnC,-0.7918749949999991
mp-1630,Zr3Hg,-0.180723351250001
mp-16304,YPPt,-1.3514747073015865
mp-16305,ScPRu,-1.190016154523809
mp-16307,Sr2MgIrO6,-2.4864499674166667
mp-16313,TbSbPt,-1.2119709616666663
mp-16314,TmSbPt,-1.2137300361111112
mp-16315,GePt3,-0.3118342687500002
mp-16318,RbTiS2,-1.6008893809375009
mp-16319,Rb3Sb,-0.3476730193749999
mp-1632,NdB4,-0.5615447316666661
mp-16321,SrCuP,-0.8190247267460317
mp-16326,DyPPt,-1.3482583961904762
mp-16327,DySbPt,-1.2142039549999997
mp-16329,ErSbPt,-1.2165728749999996
mp-16334,Fe3PdN,-0.2033220524759997
mp-16337,Ga2HgTe4,-0.3004609171428569
mp-1634,MoSe2,-0.6728736715625002
mp-16340,GdPPt,-1.3595738595238085
mp-16343,LiInGe,-0.1967022355555556
mp-16349,LiNi2Ge,-0.3381347616666668
mp-1635,TbMg,-0.0870104616666664
mp-16356,TiNiGe,-0.6782866541666657
mp-16363,CoAsS,-0.6665316543749995
mp-1637,Re2P,-0.2913283536904754
mp-16370,Th2Ge,-0.577812048333333
mp-16371,ThGe2,-0.6417824150000003
mp-16375,Ho5Ni19P12,-0.8756477659126989
mp-16376,HoSbPt,-1.2166873816666666
mp-16377,Ho(SiPt)2,-1.0740861879999997
mp-1638,SrAl2,-0.2542271305555553
mp-16380,Nd2Te3,-1.4640664535
mp-16381,NaMn6P7O24,-2.603672947333974
mp-16382,KCd6P7O24,-2.409579139684211
mp-16383,Na3Cr2(AsO4)3,-2.074253362500001
mp-1638841,CaLaVCrO6,-3.0702839607499994
mp-1639156,CaCoP2O7,-2.75776325667208
mp-1639214,CaLaTaFeO6,-3.2811447695
mp-1639336,CaLaFeSbO6,-2.77608334275
mp-1639353,CaLaFeSbO6,-2.77551704925
mp-1639590,Mg10FeO11,-2.9390279642992425
mp-1640,Ho2C,-0.2954625933333344
mp-16402,Tb4(SiS4)3,-1.8340552810526305
mp-16403,SnHgP14,-0.0073170564062499
mp-1640489,KMnP3HO10,-2.494447113934341
mp-1640532,LiNi2O3,-1.2792782634027775
mp-1640978,CaLaFeNiO6,-2.37244783725
mp-1641158,Sr6Ti3FeO14,-3.239954004270832
mp-16415,LaPdO3,-2.3720891267500006
mp-1642,Ta5N6,-1.339414891752726
mp-1642439,Ba3Sr(CoO3)4,-2.096884697583333
mp-16430,Pr(FeP3)4,-0.5913676757563016
mp-1643003,SrCo(GeO3)2,-2.308402357666665
mp-16431,Nd(FeP3)4,-0.5924069819327726
mp-16432,Sr3(BO3)2,-3.253911284924241
mp-1643291,Fe2PClO4,-2.2405994986664286
mp-1643334,BaSr4(FeO3)5,-2.3041026982166657
mp-16435,Ba3Sc4(CuO4)3,-2.8959658863636366
mp-16445,CsSm2CuSe4,-1.4922578173715877
mp-1644889,Na5Fe2P2(CO7)2,-2.305750705585714
mp-1645,Al9Rh2,-0.5072498486363635
mp-1645141,Sr6Ti3FeO14,-3.2429196715625
mp-16452,BaLa2ZnS5,-2.239964259513889
mp-16453,BaCe2ZnS5,-2.1352615872916667
mp-16454,BaPr2ZnS5,-2.1525160000694448
mp-16457,Tl2B4O7,-2.4820796602884605
mp-1646,Li3Hg,-0.2799383975
mp-1646388,LiNi2O3,-1.2786058950694443
mp-16464,CsIn(PO3)4,-2.6029520021138928
mp-16475,Sr11Sb10,-0.97639047968254
mp-16478,Tb2Si5Ru3,-0.853270461000001
mp-1648,Al12Re,-0.1285233619230772
mp-16480,Al3Au8,-0.2665964156818177
mp-16481,TiAlAu,-0.4976807999999995
mp-16482,TiAlAu2,-0.4410196549999998
mp-1648259,V2OF5,-3.058605741941667
mp-16483,BaAl9Fe2,-0.3168008241666668
mp-16486,Ce(Al2Fe)4,-0.4129967496153837
mp-16488,Al9Co2,-0.3318833245454545
mp-16490,Lu2Al3Co,-0.5054821333333338
mp-16491,SrAl9Co2,-0.4028071047222224
mp-16493,YAl2Co,-0.5429954808333326
mp-16497,ScAlCu2,-0.4126818037499991
mp-16498,Sm(Al2Cu)4,-0.3170240587179483
mp-1649942,K3CoPCO7,-2.2672064637554947
mp-16501,HfAlPd2,-0.8300536700000007
mp-16502,Ho2Al,-0.291610600833333
mp-16503,HoAl2Ni,-0.6450034525000001
mp-16504,HoAl4Ni,-0.5483549191666661
mp-1650411,Sr5Fe4MoO15,-2.4840631336833336
mp-16505,La3Al11,-0.3999201660714289
mp-16506,Li3Al2,-0.1872463039999999
mp-16507,LuAl,-0.4002837093750004
mp-16508,Lu3Al2,-0.3268213984999996
mp-16509,LuAl4Ni,-0.5226366033333333
mp-1651,Th2Al,-0.2287214249999998
mp-16513,NdAl3,-0.4418918925000001
mp-16514,Al3Ni5,-0.5660844387499999
mp-16515,Al4Ni3,-0.6285601391071438
mp-16516,TbAl2Ni,-0.63223956625
mp-16517,TmAl2Ni,-0.6519986520833339
mp-1651775,La2VFeO6,-3.11785551075
mp-16518,TmAl4Ni,-0.5363531538888887
mp-1652,ZnPd,-0.5754307274999997
mp-16523,Al3Pd5,-0.8537437993750006
mp-16524,ScAlPd2,-0.9518119912499996
mp-16526,AlPt2,-0.8536576074999994
mp-16528,Al6Re,-0.2056475107142858
mp-16529,Al6Ru,-0.3293784171428565
mp-16538,Ba5Gd8Zn4O21,-3.199438652269736
mp-1653877,Sr6Ti3FeO14,-3.241455808229166
mp-1654,CeNi2,-0.3771501483333341
mp-16543,Cs3Cu5O4,-1.0903858282327576
mp-16544,Mg4As6Ir7,-0.4523354737254901
mp-16552,MnAg(PO3)3,-2.387831205958056
mp-16553,NaCa9Mn(PO4)7,-3.235263147513374
mp-16557,SrAlF5,-4.064878388409523
mp-16559,KHo2CuSe4,-1.498272321546875
mp-16560,KEr2CuSe4,-1.4920294002968748
mp-16564,ZnCu2SnSe4,-0.391571646796875
mp-16565,CdCu2SnSe4,-0.3715675236718749
mp-16566,Cu2SnHgSe4,-0.2727943174218747
mp-1657,UAs2,-0.6083611833333341
mp-16577,Li2CaHfF8,-3.9044924439877775
mp-1658,Tl2O3,-1.1135279502499995
mp-16585,HgB4O7,-2.4935953293402786
mp-1659,ThRe2,-0.0963737508333319
mp-16590,Tb4Si2S3O7,-3.3047977844140632
mp-16594,K3TbSi2O7,-3.0878872877756405
mp-16595,K3DySi2O7,-3.0922985618782044
mp-16596,K3HoSi2O7,-3.0961136781602567
mp-16597,K3ErSi2O7,-3.0996453467499987
mp-16598,K3TmSi2O7,-3.105343151365384
mp-16599,K3YbSi2O7,-2.850727430980769
mp-1660,ErZn,-0.3524043474999998
mp-1660339,SrCaMn(PO4)2,-3.0667726426480524
mp-16605,Sr2TmTaO6,-3.643828063916667
mp-16608,Si3Os2,-0.4526609129999997
mp-16610,Ge3Os2,-0.0742460644999994
mp-1661716,Mg2Ta2FeO8,-3.0591014301282056
mp-1661854,Mg2Ta2VO8,-3.1220163822435887
mp-1661938,Mg2Ta2MnO8,-3.113386074021679
mp-16620,LuAl7Au3,-0.4830988231818183
mp-16621,HoAl7Au3,-0.5063314563636364
mp-1662148,Ta2Zn2NiO8,-2.515097189615386
mp-16622,NdAl7Au3,-0.5195078427272726
mp-16623,DyAl7Au3,-0.5108286477272728
mp-16624,ErAl7Au3,-0.501420788181818
mp-16625,YbAl7Au3,-0.4729179815151512
mp-16626,SmAl7Au3,-0.5202510575757576
mp-16627,TmAl7Au3,-0.4952746307575753
mp-16638,Nd2MgCu2,-0.1945646746666668
mp-1664,V3Pd,-0.13475880875
mp-16641,YbSn2Pd,-0.719648246666666
mp-16644,PrMgPt,-0.8816424916666661
mp-16645,SmMgPt,-0.9199614411111104
mp-16646,PrMgRh,-0.590165211111111
mp-16648,LiSn4Rh,-0.3676661569444448
mp-16652,Tb2MgPd2,-0.7740561886666668
mp-1665555,LiNiPO4,-2.319548788605442
mp-1666,Th2S5,-2.207406973303572
mp-16663,Ba6Y2Ti4O17,-3.541711053204023
mp-16668,Yb2Cu4As3,-0.6321617228703708
mp-1667748,Na3CoAsCO7,-1.9574142787500004
mp-16678,Nd2Mo4O15,-2.573473071527777
mp-16679,Sm2Mo4O15,-2.572463169781745
mp-1668,YbAu2,-0.8112353388888884
mp-16684,PrCuS2,-1.7045174359374995
mp-16690,K2NdP2S7,-1.4212053935431552
mp-16691,SrLi2Ti6O14,-3.4056250445652183
mp-16695,K2ZnP2O7,-2.607985761616072
mp-1670,MnPt,-0.3464685198275861
mp-16705,Pr2O3,-3.744276616500001
mp-16713,Pr2B5,-0.4883375516666665
mp-16718,Al6Tc,-0.272194715714286
mp-16719,Al12Tc,-0.1619486007692309
mp-1672,CaS,-2.4832149490625004
mp-16721,TmAl,-0.4083535679166665
mp-16723,Y3Al2,-0.3547644875000003
mp-1673,Tb5Ge4,-0.8520042363888886
mp-16737,Na2BeB2O5,-2.737414033291666
mp-1674,PrSe,-1.836372553671876
mp-16742,BaAgTeF,-2.0877201748808334
mp-16744,Y(Al5Fe)2,-0.3571952244871798
mp-16745,ErAgPb,-0.3534498977777779
mp-16747,LuAgPb,-0.2988417999999997
mp-1675,Ho3Ge4,-0.7817783978571425
mp-16750,HoCuPb,-0.3804990666666666
mp-16751,ErCuPb,-0.3708927783333327
mp-16753,LuCuPb,-0.3323091949999994
mp-16756,Ta3Ga2,-0.2778277279999998
mp-16763,KYTe2,-1.4058175740833327
mp-16764,RbYTe2,-1.3913752502083332
mp-16765,Zr2Te2P,-1.1156499197142864
mp-1677,Be2Mo,-0.3199210158333336
mp-16770,Ca2Ag7,-0.2355078692592592
mp-16771,MgSe2O5,-1.7711514795963543
mp-16773,KTb(PO3)4,-2.9307034831825387
mp-16777,NaAlP2O7,-2.9119639825811703
mp-16780,KBaNbS4,-1.7981110411428578
mp-16787,K2V3O8,-2.454311907
mp-1679,La2Ni7,-0.3153639888888888
mp-16792,Ba4LiTa3O12,-3.379312851083333
mp-16793,Be3Cd4Si3SeO12,-2.5756348487975544
mp-16794,Sc2Re3Si4,-0.6409662866666663
mp-16795,CaAlF5,-4.053977115135715
mp-16796,Sr2GdRuO6,-2.828695853083334
mp-16799,K3NdV2O8,-2.711442827071429
mp-16800,Sc2(SO4)3,-2.7075532470220582
mp-16802,BaMo2(P2O7)2,-2.7337004915136056
mp-16804,LiCaPO4,-3.1144437683673463
mp-16805,Cs2Ti(GeO3)3,-2.4203073844741376
mp-16807,Dy3(AlNi3)2,-0.5636645586363639
mp-1681,La3Sn,-0.4819234237500005
mp-16811,Ho2MoO6,-3.241711269444443
mp-16812,KVP2O7,-2.705688320353896
mp-16814,KTh2V3O12,-3.0624701954444444
mp-16818,Rb2Cd3Se4,-0.8504888404861108
mp-16819,ZnTeO3,-1.641896834
mp-1682,ZrAs,-1.14258389875
mp-16821,Ba3PrRu2O9,-2.570135888083333
mp-16825,Gd3OsO7,-3.1539248680681826
mp-16828,Li3B7O12,-2.825437253106061
mp-1683,ZrSe3,-1.048091325507812
mp-16830,Sr(Ni2B)6,-0.3444923182456144
mp-16831,CaTi4(PO4)6,-3.1104417904693875
mp-16834,Zn3(AsO4)2,-1.7834281546153845
mp-16836,RbNa2Si17,-0.0410064408749988
mp-16839,Na3WN3,-0.6269370281628578
mp-1684,ZnAu,-0.2158590225000001
mp-16841,La4MnSe6O,-2.094526882577307
mp-16842,Nb5Ge3,-0.4763526425000002
mp-16847,K3Na2SnP3,-0.4010826721904759
mp-16848,Tl3PS4,-0.7571984373214287
mp-16852,Ga7Ni3,-0.3191544764999996
mp-16855,K3Ta3Si2O13,-3.1688421864404765
mp-16856,RbMoP2O7,-2.5664230568993505
mp-16859,Ba6Ga5N,-0.4777688143649996
mp-16860,Mg13Ir3,-0.2588019355208333
mp-16861,Na5GeAs3,-0.4014219169444442
mp-16863,Rb3PS4,-1.3261532020089293
mp-16864,RbV3O8,-2.374944557708333
mp-16867,YbCu(WO4)2,-2.273878196805555
mp-1687,BaPd2,-0.5800551983333335
mp-16870,Ba2CdSe3,-1.5740712620052086
mp-16871,K2ZrGe2O7,-2.614183371229167
mp-16872,RbLi2Ga2(BO3)3,-2.609173838357844
mp-1688,ErAs,-1.5115736699999998
mp-16882,ZnMoO4,-1.9851425236111109
mp-16884,RbEr2Cu3Se5,-1.10886315765625
mp-16889,Na6Sn2Se7,-0.86513547509375
mp-1689,HfRe2,-0.396424365833333
mp-16894,Cr7(PO4)6,-2.55943932895753
mp-16897,Sr2Sb3,-0.7997093834166662
mp-169,C,0.0013263549999997
mp-16903,SrSbF5,-3.3878736118023807
mp-16905,Ba2MnTe3,-1.2493755403591955
mp-1691,La2Ni3,-0.3272571180000007
mp-16911,Rb2S5,-1.0705724175892857
mp-16913,Ag2SeO3,-0.8361951775434028
mp-16914,Y2Si5Ni3,-0.7903869346666668
mp-16915,BaTiOF4,-3.9490202401442858
mp-16916,Ca6FeN5,-0.945411922241666
mp-16917,RbV3(SeO6)2,-1.9914425476215285
mp-1692,CuO,-0.9504427106249996
mp-16921,KNa4GeAs3,-0.4114875514444441
mp-16922,Ba2Sb3,-0.8471590282500003
mp-16927,NaTbGeO4,-2.8804154414285708
mp-16928,Ba6Lu2(WO6)3,-3.116999069051724
mp-16929,Pr3Si6N11,-1.4919042548089991
mp-16930,Na3GeTe3,-0.6580399074999994
mp-16932,Th2Co17,-0.1162055181578948
mp-1694,Yb2Ge,-0.6571139444444439
mp-16945,Sr3(GaN2)2,-0.7751300882799994
mp-16956,Na3Sc2(PO4)3,-3.086040630785713
mp-16958,LaNi5P3,-0.8116949178571429
mp-1696,CdPd,-0.4201241749999997
mp-16960,AlPt2,-0.8525562699999997
mp-16961,Na6Si2Se7,-0.9288728624270832
mp-16964,SiO2,-3.270329148888889
mp-16965,LaTm(Ge2Ir)2,-0.8299854685416665
mp-16967,CaV4(AgO6)2,-2.2116472079824563
mp-16969,Lu2SiO5,-3.873381287343751
mp-1697,TbPt2,-1.0972458849999995
mp-16970,Na2Si2O5,-2.9149983340277776
mp-16972,CsErSiS4,-1.8095118372044336
mp-16978,Ba3MgSb2O9,-2.708924299305556