material_id,pretty_formula,formation_energy_per_atom
mp-1178355,Er2TeO2,-3.2586944505000006
mp-1178362,DyClO,-3.5536588231700006
mp-1178365,Dy2Pt2O7,-2.470318427613638
mp-1178366,Dy2SbO2,-3.0075153415000018
mp-1178370,Dy3TaO7,-3.86521326034091
mp-1178380,DyNbO4,-3.575756199166667
mp-1178386,CsTe4,-0.391676558586207
mp-1178391,CsLiWO4,-2.319551629942528
mp-1178399,Cs6Br4O,-1.6375821867123823
mp-1178403,Cs2TiO3,-2.696224770768678
mp-1178405,Cs2HfO3,-2.835136149935345
mp-1178422,Cs3GaO3,-1.7978803539347292
mp-1178424,CoNiO3,-1.12271186575
mp-1178448,Cr(NO3)5,-0.9341938730468248
mp-1178449,CsLaO2,-2.925220561357759
mp-1178450,Cs6Ge2O7,-1.9638011590890807
mp-1178463,Cs4SiO4,-2.209575564913793
mp-1178475,Cs5YO4,-1.8983861555488504
mp-1178513,BaSnO3,-2.599455767749999
mp-1178562,AgBrO3,-0.2962690794166668
mp-1178563,AgAsO3,-1.283287357416666
mp-1178583,Cs3DyO3,-2.204687889649015
mp-1178678,YH3,-0.7106787835483335
mp-1178715,Yb2Te5O13,-1.961101945729166
mp-1178731,YB6(HO4)3,-2.727600998599698
mp-1178763,VS2,-1.2900387320833342
mp-1178773,YFe2,-0.0609041797777772
mp-1178815,VAgO3,-1.7512237299166658
mp-1178900,YFe2,-0.0615649225694442
mp-1178924,Tm(BIr)4,-0.5112450901851859
mp-1178946,TmWC2,-0.321357143958334
mp-1179,DyNi5,-0.32977242
mp-11790,LaCuSe2,-1.3353276717968754
mp-1179009,Tb5BiAu2,-0.68582666
mp-1179023,SrZnSb2,-0.5641321416666667
mp-1179089,SrO2,-2.196672358888889
mp-11791,CeCuSe2,-1.2090744974218754
mp-1179147,VH10SO10,-1.6467915380375002
mp-1179173,Sr2H4Pd,-0.6301253250447617
mp-11792,PrCuSe2,-1.2393814886718753
mp-11793,SmCuSe2,-1.2329678801302082
mp-1179315,SrTeO3,-2.3875868281666666
mp-1179320,SrTeO3,-2.386460662916667
mp-1179380,Rb8(GaH3)5,-0.262715059975
mp-1179390,Rb7Th6F32,-4.018073250901778
mp-1179404,SmAgAs2,-0.7702916841666667
mp-1179405,Sr(H2O3)2,-1.4330079248769698
mp-1179432,SmAs2Au,-0.7573509445833331
mp-1179443,SiSe2,-0.4458984648958329
mp-1179485,Sm4In21Pd10,-0.5237876255238096
mp-1179514,Sm5Pb3,-0.5471016577083336
mp-1179515,Sc3RuC4,-0.4708817806249996
mp-1179520,Sc5Ga3,-0.5295548687499991
mp-1179530,SmInCu,-0.3994061555555556
mp-1179542,Zn3B7BrO13,-2.52835945092014
mp-1179656,Rb,0.0
mp-1179677,Re2Cl5O4,-1.5837422410272737
mp-1179709,RbIn3F10,-2.897839125314285
mp-1179711,RbSn2(PO4)3,-2.5526143637896817
mp-1179721,RbP(HO2)2,-2.232158205882678
mp-1179724,RbLi2(H2N)3,-0.6180103170577773
mp-1179727,RhSCl5,-0.956556368489286
mp-1179728,RbF3,-1.8346607077675
mp-1179734,RbF3,-1.8372353821425
mp-1179773,Sr2(PPd)3,-0.8998923080059527
mp-1179800,Rb(WO3)3,-2.231731592980768
mp-1179820,Rb2TeH6SeO10,-1.5500565613281878
mp-1179864,NaMnCu3Se4,-0.3833798037811304
mp-1179866,Pr3CBr5,-1.5974791694444446
mp-11799,PrNi,-0.2923656624999999
mp-1179918,Pr(BRh)4,-0.5406165175925916
mp-1179919,Pr(As3Ru)4,-0.4596406132352939
mp-1180,MnPt3,-0.3538916849137932
mp-1180022,P2W9O31,-2.263470681211735
mp-1180046,NiS2,-0.6992367287500004
mp-1180119,NaTiCu3Se4,-0.6844685449305553
mp-1180133,NaCaH6Ir,-0.6422742779688883
mp-1180150,Nb2FeO6,-2.753095925
mp-1180208,NF2,-0.3175672124200002
mp-1180295,Na3Si17,-0.0075629577499988
mp-1180394,Pr2Hf3(MoO4)9,-2.6390315883000004
mp-1180408,Na3Gd(PO4)2,-2.953567618605442
mp-1180434,Na2H18SO9,-1.3724502602345003
mp-1180494,Mg7Si2(H3O7)2,-2.633799815950116
mp-1180504,LiH2IO,-1.3336159570313335
mp-1180537,NiH12(ClO6)2,-1.1623241615725926
mp-1180540,LiSc(SiO3)2,-3.349643491916666
mp-1180573,Nb6HI11,-0.4891109724233331
mp-1180593,KH3(SeO3)2,-1.454254259045624
mp-11806,LiMgSnPt,-0.6711664125000003
mp-1180608,LiUAs(H4O5)2,-1.9589997175298417
mp-1180682,LaMg2H7Pd,-0.4682518183642424
mp-1180690,Na2Mg2NiH6,-0.2982378907624239
mp-11807,LiPt,-0.6075449933333337
mp-1180708,Na12B26O45,-2.756102045637551
mp-1180715,Na3AsH16(SO2)4,-1.3031916249349995
mp-1180718,KSn2(PO4)3,-2.560745127428571
mp-1180738,LaBr3O7,-1.0862362362500002
mp-1180754,Na3Sr4Cr5F26,-3.4497754960554383
mp-1180758,LaTe2,-1.4009303508333335
mp-1180771,KCoO2,-1.5823352913750002
mp-11808,ScNi4Sn,-0.4152770825
mp-1180870,K3NaCr2O8,-2.0632686506428564
mp-11809,TiAl2,-0.4272413249999995
mp-1180946,K2HgCl4,-1.7219614745057146
mp-1181006,LiVTeO5,-2.084198112552083
mp-1181012,Li4Re6S11,-1.1093164724305555
mp-1181033,HoB2Ru,-0.6220606785416667
mp-1181041,HoWC2,-0.2968968206250011
mp-1181047,Ho5SbAu2,-0.7625444256250002
mp-1181055,Ho5Tl3,-0.2970420018749999
mp-1181094,Hf2SiH,-0.7568573071549993
mp-11811,CaGaAu,-0.7138453091666666
mp-1181137,GdFe5,-0.0394560549999987
mp-1181188,H2,4.440892098500626e-16
mp-1181189,H2,4.440892098500626e-16
mp-1181219,K3FeMo4O15,-2.154674015880434
mp-1181234,In10(Pb2S7)3,-0.908237954476351
mp-1181237,HfAlPt,-1.037880442222222
mp-1181265,H2,4.440892098500626e-16
mp-1181275,La11Sn10,-0.7924596128571431
mp-1181313,Ga2(TeO3)3,-1.773781992589286
mp-11814,Rb2Au3,-0.2986167389999998
mp-1181423,ErB2Ru,-0.637164541041666
mp-1181425,Er4Ga12Pd,-0.5919328329411759
mp-1181428,DyWC2,-0.2836614187500004
mp-1181438,Er5BiAu2,-0.6961032974999997
mp-1181462,DyAgSe2,-1.2059839057552084
mp-1181498,Dy5SbAu2,-0.7577540450000004
mp-1181500,Dy3Ge5,-0.7136188862499999
mp-1181506,DyVSb3,-0.5113308799999992
mp-1181507,Dy5BiAu2,-0.6899176193749996
mp-1181515,Dy4Ge6Rh7,-0.954648498823529
mp-1181553,Dy5Tl3,-0.2988207168750003
mp-1181559,H5NO,-0.9080993534614278
mp-1181575,K3Na8FeH12S6(NO18)2,-1.930234914719852
mp-11816,BaCdGe,-0.4720946916666667
mp-1181630,Er17(TeRu2)3,-0.5914669942307689
mp-1181682,Ce(FeSb3)4,-0.2110914849999997
mp-1181688,Cs2K2B10O17,-2.806109609078884
mp-1181689,Cs3Ba4C3O9F5,-2.924028661916378
mp-1181702,Cs3H(SeO4)2,-1.6846882505071856
mp-1181719,NaZn4H6SClO16,-1.4613265795898278
mp-1181768,Cs2ZnH4,-0.316908330048867
mp-1181782,CuReO4,-1.7799307843750007
mp-1181784,K2MgMo2(H2O5)2,-2.071847309279649
mp-11818,BaZnGe,-0.4924860183333338
mp-1181810,K3V2(S2O9)2,-2.2627795782037032
mp-1181839,Cs4Sr(SnSe3)3,-0.9662984934990916
mp-11819,BaSnHg,-0.582455665
mp-1181965,CsVSO6,-2.297650447061781
mp-1182,DySi,-0.8268494899999999
mp-11820,BaNa2,-0.0176501075
mp-1182034,CeH14Cl3O7,-1.6635899963684004
mp-1182037,Ca3B4(H4O)3,-1.1713120829783328
mp-1182061,BaNaH6Ir,-0.6159020707466661
mp-1182186,BaYMn2O5,-2.796727352312632
mp-11822,Ca3GeN,-0.8166153214760001
mp-1182298,BaNaSc(BO3)2,-3.168172099469697
mp-1182342,BaNaY(BO3)2,-3.166434832954546
mp-1182345,Au(OF3)2,-0.9789409932933332
mp-11824,Ca3PN,-1.098097127190286
mp-1182400,Ba3LaIr2O9,-2.50357364375
mp-1182477,AsN(OF3)2,-1.951589191202
mp-1182483,Ba4Pr(RuO4)3,-2.476536199166667
mp-11826,CaPd5,-0.3710096941666663
mp-1182608,Ce5Al2Ru3,-0.4695387605000007
mp-1182634,B9Pb8O21F,-2.377559598908717
mp-1182635,Ba8CaY2U4O24,-3.5798380329914536
mp-1182693,CeAgAs2,-0.782890040520833
mp-1182712,CaH8(BrO6)2,-1.1193995564765211
mp-1182729,CaH16C4N8(ClO2)2,-0.9746762002422852
mp-1182737,Cs2Si(S2O7)3,-2.1275552480287363
mp-1182756,Cs5Tc6S8Br7,-1.3133132174867377
mp-1182773,Ba(GdTe2)2,-1.5682345974999998
mp-1182789,FeCl3,-1.1496260768199995
mp-1182867,AlWO4,-2.6784024008333334
mp-1183012,Al2Si3H8(NO5)2,-2.2512070730487994
mp-1183037,ZrZnAu2,-0.4700806187500008
mp-1183038,ZrZnIr2,-0.6452834512500001
mp-1183039,ZrTaTc2,-0.4415193549999987
mp-1183040,ZrSe,-1.3463134211718757
mp-1183041,ZrZnCo2,-0.2750932387500002
mp-1183042,ZrSiRu2,-0.7150344387499992
mp-1183048,ZrSnRu2,-0.5897809499999997
mp-11831,YbZnSn,-0.5847212105555558
mp-1183136,Al2OsRh,-0.7637981850000006
mp-1183137,Ag3Au,-0.0382784475000002
mp-1183148,AlGaCo2,-0.4451887700000005
mp-1183155,Al2NiOs,-0.5360833275000001
mp-1183162,AlFe3,-0.1994363024999996
mp-1183166,AgBiPd2,-0.2105275908333332
mp-1183167,AgPdAu2,-0.068806883333333
mp-1183187,AlFe2Ge,-0.2133254500000001
mp-1183191,AlCuRh2,-0.5466707225
mp-1183198,Ba2CdSn,-0.5325997825000002
mp-1183204,Ba2CdHg,-0.4266673900000002
mp-1183205,Ag3Au,-0.0321540387500003
mp-1183206,Ag3Pd,-0.05034618
mp-1183214,Ag3Au,-0.0405674075000002
mp-1183216,AlCu3,-0.1826915625000005
mp-1183218,AlGaRu2,-0.4879571175000006
mp-1183219,Ba2MgTl,-0.2368574933333336
mp-1183224,AgAu3,-0.0384633308333328
mp-1183227,AgAu,-0.0348895366666668
mp-1183246,AlH3,-0.1159503118816663
mp-1183252,BIr,-0.200508464166667
mp-1183274,Ba2MgIn,-0.2439864408333334
mp-1183276,AlTl2F5,-2.99357947699375
mp-1183299,BaHg2Bi,-0.4721508075
mp-1183301,Ba2ZnHg,-0.3483640737500002
mp-1183302,Ba(GaAs)2,-0.6507394130000002
mp-1183308,BaMg,-0.0570404866666667
mp-1183313,Ba2TlHg,-0.476746085
mp-1183329,Ba2InHg,-0.46686699
mp-1183330,Ba3Sr,0.0016246158333332
mp-1183381,Ba2ZnIn,-0.2859887787500001
mp-1183386,BaSrTl2,-0.4188630716666668
mp-1183390,BaSnHgS4,-1.2362644335714283
mp-11834,CuNiSb2,-0.1456377575000003
mp-1183402,BaLi(B3O5)3,-2.947646577708333
mp-1183410,Ba5V5O14,-2.865094145729167
mp-1183411,Be3Rh,-0.4390985437500001
mp-1183416,BeCrFe2,-0.110142023749999
mp-1183419,Be2IrRu,-0.3871478599999998
mp-1183421,Be2NiRu,-0.3542316850000002
mp-1183423,Be3Co,-0.2535960074999996
mp-1183425,Be3Co,-0.2570863712499998
mp-1183430,CaMg2,-0.1081077022222221
mp-1183442,BiPd2Au,-0.2166912399999994
mp-1183453,Ca2TlHg,-0.5054650099999998
mp-1183458,Ca2CdHg,-0.455276765
mp-1183460,Ca2InPb,-0.4940103924999999
mp-1183461,Ca2TlZn,-0.3494958287499996
mp-1183463,Ca2ZnGa,-0.3558911762500001
mp-1183470,Ca2ZnPb,-0.4444326312500002
mp-1183478,CaDyZn2,-0.2993405562500002
mp-1183484,Ca,0.0002749425000001
mp-1183490,Ca(CuAs)2,-0.481646095
mp-1183493,Ca2PdPt,-0.7919444100000002
mp-1183512,Ca2TlSn,-0.5484618724999999
mp-1183513,BeH8SO8,-1.746129125393611
mp-1183517,CaCd3,-0.2799456037499999
mp-1183521,Ca3SiO,-1.6183157182500003
mp-1183528,Ca(GePt)2,-0.7738340139999998
mp-1183537,Cd2AgPt,-0.2038986558333331
mp-1183541,Cd2RhAu,-0.1297568825000001
mp-1183542,Cd,0.00147202
mp-1183546,CaTbRh2,-0.6209590112500001
mp-1183548,CaMgCd2,-0.2708981645833332
mp-1183550,CaTmRh2,-0.6707237920833329
mp-1183554,CaHoHg2,-0.5280284012500003
mp-1183555,CaNdAg2,-0.3156107804166668
mp-1183556,CaYCd2,-0.3639314995833334
mp-1183557,CaSmMg2,-0.0881562687499997
mp-1183559,CaLuHg2,-0.5045488587499998
mp-1183560,CaSmAg2,-0.31315341625
mp-1183561,CaHoCd2,-0.3452158162500001
mp-1183564,CaNdAu2,-0.8092840612500005
mp-1183566,CaTbHg2,-0.5367531512499997
mp-1183573,CaYbCd2,-0.3766591729166666
mp-1183575,CaMg,-0.0778382666666666
mp-1183579,CaLaAu2,-0.8274830725000006
mp-1183581,CaTmHg2,-0.5168770395833335
mp-1183583,CaYZn2,-0.3070297870833331
mp-1183585,CaHoZn2,-0.29674962125
mp-1183586,CaInPd2,-0.6608381937499996
mp-1183592,CaYbPd2,-0.7635161404166664
mp-1183595,CaYbTl2,-0.4676047429166665
mp-1183598,Ca2InHg,-0.511241565
mp-11836,ErSbPd,-1.117088038333333
mp-1183601,CaGdRh2,-0.5991050962499997
mp-1183608,Ca2ZnIn,-0.36090626375
mp-1183617,CaInAg2,-0.3011529379166671
mp-1183618,CaGdCd2,-0.3558380062499999
mp-1183627,CdAg3,-0.0555618300000002
mp-1183633,CdPd2Au,-0.3022887450000002
mp-1183634,CdAgAu2,-0.1148069308333332
mp-1183638,CaGdZn2,-0.2993382637500001
mp-1183640,CdHgPd2,-0.2905712249999999
mp-1183641,Cd3Pt,-0.1978783875000003
mp-1183643,CdAu3,-0.1247369499999999
mp-1183647,CdAg3,-0.0480567300000003
mp-1183654,Cd3Pt,-0.1962974387500002
mp-1183661,Cd3Hg,0.00803234375
mp-1183664,Ca6Si6H2O19,-3.26559760003
mp-1183677,CaCeIn2,-0.3876832575000004
mp-1183688,CrGaRu2,-0.1942111574999998
mp-1183690,CrGaRh2,-0.3986656650000002
mp-1183691,CrN,-0.7028407411900002
mp-1183713,CeH3,-0.5820720227149998
mp-1183717,CeMgAu2,-0.6560657870833326
mp-1183727,CeMgCd2,-0.2328951970833332
mp-1183728,Co2S3,-0.808489671875001
mp-1183732,CeTh3,-0.0097027612499998
mp-1183744,CeMgHg2,-0.3942955970833335
mp-1183749,CrIr3,-0.2353536649999998
mp-1183753,CeHoIn2,-0.40014698375
mp-1183757,CeSmTl2,-0.304471512083333
mp-1183776,CeErIn2,-0.3978939012499998
mp-1183777,CoSn3,-0.0650392150000005
mp-1183779,DyRh2Pb,-0.5702479074999989
mp-1183780,DyHoTl2,-0.3327994599999999
mp-1183781,DyMg2Sc,-0.0552801929166664
mp-1183783,DyErRu2,-0.3550571100000006
mp-1183786,DyHoRu2,-0.3400565625
mp-1183789,DyLuTl2,-0.3001841449999998
mp-1183791,DyLuAg2,-0.3343073191666663
mp-1183792,DyLuHg2,-0.4727061099999998
mp-1183794,DyErRh2,-0.9129368600000004
mp-1183797,Ce2Si5Ni3,-0.781125055999999
mp-1183798,DyLuZn2,-0.3528287574999997
mp-1183799,DyHoZn2,-0.3470056024999999
mp-1183800,DyErAg2,-0.3308330191666666
mp-1183804,DyErTl2,-0.3253168325
mp-1183806,DyLuIn2,-0.4204886399999994
mp-1183808,DyLuIr2,-0.8895038350000002
mp-1183809,Ce2HgPb,-0.3366756099999994
mp-1183810,DyLuCu2,-0.2600672050000003
mp-1183814,CePbAu2,-0.5594761187500001
mp-1183818,DyLuRu2,-0.3925814899999995
mp-1183824,Ce3Th,0.0039740437500004
mp-1183826,DyLuCd2,-0.3152537024999997
mp-1183828,DyErCd2,-0.3202766975000002
mp-1183831,DyLuRh2,-0.9466785974999992
mp-1183832,CeAsRh,-1.1492786716666668
mp-1183837,Co3Ni,-0.0258671249999995
mp-1183842,DyErZn2,-0.3504129250000001
mp-1183846,DyLu3,0.002678683750001
mp-1183850,CeBi3,-0.4420416462499998
mp-1183860,CePrHg2,-0.3746218025000001
mp-1183862,DyErCu2,-0.2514312150000002
mp-1183864,CdSn2H12(OF)6,-1.7752541273362965
mp-1183931,CsRbAu2,-0.2830786513577585
mp-1183950,Cs2HgBr4,-1.266251631908867
mp-1183951,Cs3Pb4Au,-0.2688569917241379
mp-1183955,CsHS,-1.0384348590586785
mp-1183995,GaCu3,-0.0946284075000005
mp-1183998,Ga3Tc,-0.0573244699999992
mp-1184,La2C3,-0.1667598740000016
mp-11840,BaAg,-0.2811455454166669
mp-1184001,GaCu3,-0.0910142500000001
mp-1184005,GaCuNi2,-0.2538195549999997
mp-1184021,Cu3Ge,-0.0039732525000006
mp-1184030,GaCuPd2,-0.4797135975
mp-1184037,CsH5N2,-0.5094069910363794
mp-1184046,CuCl,-0.6746907266300002
mp-1184055,GaFeRu2,-0.1583651750000001
mp-1184057,CuSnPd2,-0.4053360325000001
mp-1184058,GaNi3,-0.2838355375000008
mp-1184062,Dy2TlZn,-0.33078645875
mp-1184067,Dy,0.0041647624999994
mp-1184072,Dy2PdRh,-0.8928425050000008
mp-1184074,DyTmRu2,-0.370840423333334
mp-1184075,Er2AgHg,-0.4122029833333327
mp-1184077,Er2ZnGa,-0.48238235125
mp-1184080,DyTmAg2,-0.3331926349999996
mp-1184081,Er2RuAu,-0.6296720999999996
mp-1184084,Er2AlZn,-0.3791875712500001
mp-1184088,Er2TlIn,-0.3678254624999999
mp-1184092,Er2CuPd,-0.6066460475
mp-1184101,Er2TlHg,-0.3912470999999997
mp-1184102,Er2InHg,-0.4456790074999994
mp-1184103,DyThRu2,-0.4277232350000002
mp-1184105,Dy2TlHg,-0.4079773899999996
mp-1184109,DyTmCu2,-0.2620913658333332
mp-1184111,Dy2MgCd,-0.1950778908333337
mp-1184112,Er2MgOs,-0.1803331283333333
mp-1184113,Er,0.0075560400000007
mp-1184115,Er,0.0
mp-1184116,DyTmCd2,-0.3187898683333334
mp-1184118,Cs3CdH5,-0.238759301321456
mp-1184119,CuPd3,-0.0686117975
mp-1184120,DyTmIr2,-0.8692277608333336
mp-1184131,Er2AgOs,-0.3220669233333328
mp-1184134,Er2CdOs,-0.2491103775000001
mp-1184135,DyTmHg2,-0.4761895808333336
mp-1184136,DyYMg2,-0.0946155649999997
mp-1184137,DyTmIn2,-0.4360061458333337
mp-1184139,Dy2TlIn,-0.3961472674999999
mp-1184143,DyTm3,0.0079932899999999
mp-1184144,Er2RuPt,-0.8379586474999998
mp-1184149,DyY3,0.0093190737500004
mp-1184151,Cs,0.0
mp-1184156,Er3In,-0.2541187024999995
mp-1184158,DyTmRh2,-0.9279061183333336
mp-1184159,ErHfRu2,-0.6049590274999996
mp-1184161,ErCdHg2,-0.3442569925000001
mp-1184163,ErCdAu2,-0.6770985724999998
mp-1184169,ErLuHg2,-0.4726947524999998
mp-1184170,Dy2InAg,-0.3976351233333335
mp-1184171,ErAl3,-0.4113160525000001
mp-1184176,DyScS3,-2.3824104923750014
mp-1184178,Er3Pb,-0.2499694249999997
mp-1184180,CuTeAs,-0.0390348025000003
mp-1184192,Er3Tm,0.0092403666666669
mp-1184196,Er3Lu,0.0073489374999997
mp-1184197,CeTmIn2,-0.3875158045833338
mp-1184201,Cs2SbCl6,-1.7697971889357855
mp-1184202,ErLuCu2,-0.2849743275000005
mp-1184208,ErTlRh2,-0.5823589299999998
mp-1184216,ErMgAu2,-0.7909897383333329
mp-1184217,ErMgRh2,-0.7666589958333327
mp-1184223,ErScRu2,-0.4544402362499999
mp-1184227,ErMg2Sc,-0.0457516979166663
mp-1184233,ErMgAg2,-0.3094370575000003
mp-1184235,ErMgPd2,-0.8375905883333337
mp-1184237,ErZrRu2,-0.5435841049999999
mp-1184239,ErScZn2,-0.3593693937499997
mp-1184240,ErTmMg2,-0.0624609400000002
mp-1184242,ErTmRu2,-0.4043048858333335
mp-1184245,ErTmTl2,-0.3015813258333333
mp-1184246,ErThRu2,-0.463149490000001
mp-1184248,ErTmPd2,-0.9392245658333334
mp-1184249,ErTmHg2,-0.4763815658333334
mp-1184251,ErTmZn2,-0.3555058133333335
mp-1184253,ErTmAg2,-0.3398773349999997
mp-1184262,ErTmCu2,-0.2743082283333331
mp-1184265,GaRh3,-0.3395658624999997
mp-1184269,ErMg2,-0.0564924155555554
mp-1184271,ErTmIn2,-0.4236446558333337
mp-1184276,FeTc2Ge,-0.0750232074999992
mp-1184284,ErTmCd2,-0.3166518008333336
mp-1184302,ErTm3,0.0068682762499996
mp-1184303,ErLuPd2,-0.9516356974999997
mp-1184313,ErMg3,-0.0485148512499997
mp-1184333,Gd2MgAl,-0.2698110358333334
mp-1184336,FeIr3,-0.0732523799999995
mp-1184337,BaMg149,-0.0220946751111108
mp-1184341,CeHgAu2,-0.50712349375
mp-1184345,ErLuRh2,-0.9784094024999996
mp-1184354,Gd2IrAu,-0.7841318299999998
mp-1184360,ErLuZn2,-0.3568923799999997
mp-1184363,ErLuRu2,-0.4271578624999996
mp-1184364,Fe3Rh,-0.029198169999999
mp-1184366,Gd2TlAg,-0.3530090083333324
mp-1184370,Gd2NiRu,-0.3254708024999999
mp-1184371,Gd2AgIr,-0.5579900033333338
mp-1184381,Gd2AgAu,-0.5714442733333343
mp-1184387,Gd2RuRh,-0.5423928174999997
mp-1184388,Gd2ZnGa,-0.4958310862499999
mp-1184390,Gd2TlZn,-0.3716728912499993
mp-1184393,Gd2IrRu,-0.5244019574999985
mp-1184398,Cs3Mo2BrO7,-2.1473154571187005
mp-1184399,Gd2MgRu,-0.1655284858333328
mp-11844,Ho6GaCo2,-0.3013649572222224
mp-1184409,Gd2MgCd,-0.2236947133333329
mp-1184415,Gd2AgRu,-0.3084033308333325
mp-1184416,Gd2ZnRh,-0.5672583312500006
mp-1184417,Gd3Al,-0.2103613750000015
mp-1184422,Gd2CuRu,-0.2884642774999992
mp-1184423,Gd3I,-0.095968183750001
mp-1184424,DyYIn2,-0.4740449758333334
mp-1184427,Gd2AlZn,-0.38150180375
mp-1184428,Gd2CuOs,-0.2013577125000001
mp-1184435,Gd2CuAu,-0.5130580074999997
mp-1184448,Gd2TlHg,-0.4607284724999996
mp-1184449,CaMg149,-0.0296805238111109
mp-1184470,Gd2ZnIn,-0.4242011187499983
mp-1184477,GdCdAg2,-0.281768041666667
mp-1184479,Gd3In,-0.3106513275000022
mp-1184485,GdLuIr2,-0.8520517499999993
mp-1184495,GdMgHg2,-0.4599392858333333
mp-1184496,Gd3Lu,-0.0051911687500005
mp-1184499,GdErIr2,-0.8193163999999982
mp-1184502,In,0.0
mp-1184507,Er4Ga21Ni10,-0.5053589334285707
mp-1184510,GdLuRu2,-0.3540609124999996
mp-1184514,Gd2CdIn,-0.4377991249999988
mp-1184518,GdDyIr2,-0.7900971349999981
mp-1184521,GdErZn2,-0.8414444625000002
mp-1184522,GdLuCu2,-0.2462151475
mp-1184524,GdDyZn2,-0.3539247000000003
mp-1184527,GdDyTl2,-0.3593397624999994
mp-1184532,GdTmIr2,-0.8333511983333342
mp-1184533,GdHoTl2,-0.3528065874999999
mp-1184537,DyMg149,-0.0290028354444442
mp-1184543,GdLuAg2,-0.3198866741666668
mp-1184548,HPd,-0.1612502968099995
mp-1184554,Hg,0.0
mp-1184559,HfScTc2,-0.2777421737499992
mp-1184560,HfZnPd2,-0.6813968137500002
mp-1184567,Hf2TcIr,-0.8601044699999996
mp-1184568,Hf2ZnTc,-0.3347503812500001
mp-1184572,HfMgPt2,-1.0084083258333338
mp-1184573,HfTaRu2,-0.556091007500001
mp-1184580,HfZnRh2,-0.8611035487500001
mp-1184583,Ho2AlRu,-0.3733006125000004
mp-1184585,Ho2CuOs,-0.2871128849999991
mp-1184586,Hf2CoOs,-0.5706959962500004
mp-1184587,Hf2MnOs,-0.4403835774137921
mp-1184588,Hf2MoPt,-0.6340567324999995
mp-1184589,HfTc2Mo,-0.2944758200000006
mp-1184592,Hf2RePd,-0.5603535237500008
mp-1184593,Ho2IrPd,-0.9392430350000004
mp-1184594,Hf2TcPd,-0.6230490400000015
mp-11846,Pr(AlZn)2,-0.4429739469999997
mp-1184601,HfZrRu2,-0.7263179050000019
mp-1184602,Hf2MnCo,-0.3061872336637936
mp-1184604,Hf2OsRu,-0.768047395
mp-1184607,HfZrOs2,-0.6134936599999996
mp-1184609,Hf2CuTc,-0.3376009925000005
mp-1184612,Hf2TcNi,-0.4948792024999999
mp-1184613,GdThRu2,-0.3822235125000013
mp-1184618,Ho2TlHg,-0.3992551674999993
mp-1184624,Ho2MgCd,-0.1911579358333335
mp-1184628,Ho2TlZn,-0.32467016375
mp-1184631,Ho2AgRu,-0.3783839783333329
mp-1184635,Ho2ZnGa,-0.4826679512499998
mp-1184638,HoAl3,-0.4204447037499998
mp-1184643,Ho2InHg,-0.4531960824999999
mp-1184644,Ho2TlIn,-0.3825295324999995
mp-1184648,HfZrFe2,-0.2550890424999998
mp-1184657,Hg,0.00503403875
mp-1184658,HgPd3,-0.1396714099999996
mp-1184663,Ho2RuPt,-0.8091464600000009
mp-1184670,Hf3Al,-0.2210023875000004
mp-1184678,Hf2FeRh,-0.5832969375000001
mp-1184681,Hf3Sc,-0.001243604999999
mp-1184684,HfGeRu2,-0.6665515075000013
mp-1184689,Ho2NiRu,-0.4203246975000008
mp-1184690,Ho2MgRu,-0.2115780558333337
mp-1184691,Ho2AgHg,-0.4088654283333328
mp-1184709,Hg,0.0065167425