material_id,pretty_formula,formation_energy_per_atom
mp-1206858,Rb(PRu)2,-0.6226942289285716
mp-1206859,ErBrO,-3.1821124820833333
mp-1206860,NdMgIn,-0.4124430777777779
mp-1206861,Ba2ScReO6,-3.06086245475
mp-1206863,CsCaCl3,-2.631681525542207
mp-1206867,Sc2Ga8Co,-0.4659776440909088
mp-1206870,MnCu2GeTe4,-0.1013192224568966
mp-1206877,Lu3PbC,-0.567618199999999
mp-1206878,Tb3GaC,-0.4167413680000003
mp-1206881,LiTaS2,-1.6060849094791676
mp-1206883,K2CoF6,-2.5218811409044446
mp-1206887,ThCoGe2,-0.6878179712500003
mp-1206889,YCCl,-1.4371117821977784
mp-1206891,RhI3,-0.2889425212499996
mp-1206893,Sc6Te2Ir,-0.8312963766666664
mp-1206894,Lu3AlC,-0.4794135300000001
mp-1206895,La2Ni2I,-0.7306067740000003
mp-1206899,Ho3(FeGe)4,-0.4900362945454553
mp-1206905,Sm2MgCu2,-0.2089038780000002
mp-1206909,CaBPd3,-0.5570671626666659
mp-1206911,ErRu3C,-0.246053332000001
mp-1206912,Lu3GaC,-0.5433322700000005
mp-1206920,K(PIr)2,-0.6405910520285716
mp-1206922,Ce3SnN,-1.0574284854759994
mp-1206924,Ba(ZnGe)2,-0.386154252
mp-1206926,Rb(AsRh)2,-0.6170005094999993
mp-1206927,Hf2Se,-0.8087260791145839
mp-1206931,Cr(BMo)2,-0.4426656763333341
mp-1206935,Tm6FeBi2,-0.4163569755555561
mp-1206941,Rb(CoP)2,-0.5759977589285719
mp-1206944,LaMgCu,-0.1813669727777779
mp-1206945,Gd2Ni2Sn,-0.584481434
mp-1206951,GdMgTl,-0.3424660822222221
mp-1206953,ErBiPd,-0.9224508133333332
mp-1206956,PrRe2SiC,-0.4191246859999992
mp-1206957,ErNiAs,-1.04057817
mp-1206959,Yb(PPd)2,-0.9194799187619048
mp-1206961,Yb(ZnSi)2,-0.3390471493333333
mp-1206962,LiTaF6,-3.6049674104758336
mp-1206963,Mg2Ga2S5,-1.3803194546990742
mp-1206964,Zr6NiSb2,-0.5820318777777784
mp-1206971,Tm2FeSi2,-0.7280795653333328
mp-1206977,GdNiAs,-1.0555626233333335
mp-1206983,Ho3PbC,-0.5497151720000005
mp-1206989,TbBiPt,-1.0324641733333333
mp-1206990,Sm3SnN,-1.075641044476
mp-1206992,LuBiPt,-0.9961648333333338
mp-1206993,Nd(AlSi)2,-0.3933662859999998
mp-1206994,La3SnN,-1.0829881694760004
mp-1206996,La3AlO,-1.4769702192500005
mp-1206998,La(AlSi)2,-0.4195810370000004
mp-1207003,La2Cu2I,-0.6042012069999998
mp-1207004,HfPd2,-0.8192350133333335
mp-1207007,Tm(MnSi)2,-0.6343830985287369
mp-1207011,ScInNi4,-0.408909869166667
mp-1207013,Si2Rh3,-0.8261154820000002
mp-1207014,TbMgPd,-0.6920661033333333
mp-1207015,Cs(PRu)2,-0.6267340930147782
mp-1207016,Dy6MnBi2,-0.4054319688505746
mp-1207018,TbFeSi2,-0.7231244924999993
mp-1207022,K(PRu)2,-0.6322622660285717
mp-1207024,Zr3Si2,-0.8839643860000009
mp-1207028,Ho2FeSi2,-0.7111154839999998
mp-1207031,GdGaI,-1.061218848333333
mp-1207032,Y(PPd)2,-0.9317115480952382
mp-1207036,Dy2Ni2Sn,-0.5950746660000007
mp-1207039,La2Cu2I,-0.600213239
mp-1207040,Ba2InOsO6,-2.329633818749999
mp-1207052,Sr2CrWO6,-2.767995263583333
mp-1207057,TmBiPt,-1.0127230344444442
mp-1207061,Ba(AlGa)2,-0.3751404879999999
mp-1207064,Ba2TbTaO6,-3.58167825275
mp-1207065,Ba2TbTaO6,-3.5795946577500004
mp-1207066,La(AgGe)2,-0.4744864303333337
mp-1207071,SmFeSi2,-0.7049829845833333
mp-1207074,Gd3SnC,-0.6113297800000013
mp-1207078,CaNiH3,-0.5482827861720004
mp-1207079,SrH3Pd,-0.6096065785053334
mp-1207080,TbHSe,-1.4969580269879164
mp-1207082,LiMgSb,-0.5614218183333334
mp-1207086,MgAlB4,-0.1464776444444441
mp-1207092,GdHSe,-1.4906445203212495
mp-1207093,LuRu3C,-0.2798163720000005
mp-1207095,SiPAu,-0.200116027857143
mp-1207100,ScIn,-0.4202397524999997
mp-1207102,Sr(AlGa)2,-0.374602823333333
mp-1207104,Cs2KHoCl6,-2.5105481588422074
mp-1207108,BaAlGeH,-0.525217842155
mp-1207109,SmHg2,-0.4139946677777777
mp-1207110,K2TaNbO6,-2.96874497335
mp-1207112,Lu(MnSi)2,-0.6274757218620692
mp-1207113,Rb(PRh)2,-0.7399726329285713
mp-1207114,K2TaNbO6,-2.96918477235
mp-1207117,Fe2CoSi,-0.3727447250000004
mp-1207118,Ba2CdMoO6,-2.51677963075
mp-1207120,Ba2LiIO6,-2.244361833916666
mp-1207122,CeSi3Pt,-0.7998414819999986
mp-1207124,TaHg3F6,-2.503073193714
mp-1207125,Cs(FeP)2,-0.4883679310147784
mp-1207128,Th3Pt5,-1.2341875
mp-1207129,Nd2Ni2Sn,-0.5236646900000004
mp-1207130,Ba2SmUO6,-3.604663895083333
mp-1207135,Gd3TlC,-0.4185149540000011
mp-1207139,KRb2InF6,-3.015791394514
mp-1207142,Rb(CoAs)2,-0.3906124435000002
mp-1207144,Sm2MgPd2,-0.7372775389999994
mp-1207146,La2CdNi2,-0.3743181800000002
mp-1207148,HoFe2SiC,-0.5322612199999994
mp-1207149,Nd2CdAu2,-0.718225391
mp-1207153,Gd3GaC,-0.4051856900000004
mp-1207160,Rb2SbCl6,-1.7351159621733336
mp-1207163,Lu4Ni2C5,-0.42095935
mp-1207169,CaH3Pd,-0.6085906521719998
mp-1207177,TbBiPd,-0.9449528433333328
mp-1207185,LuBiPd,-0.8889436366666672
mp-1207186,DyHSe,-1.48990718032125
mp-1207190,SmBiPd,-0.9490741344444444
mp-1207192,NdHSe,-1.47418177032125
mp-1207196,Ca2H6Os,-0.6977682124133326
mp-1207197,Tb2CI,-0.7686132324999999
mp-1207198,Yb(ZnGe)2,-0.3744576913333333
mp-1207199,PrAsPd,-1.1822778366666669
mp-12072,UAu2,-0.176239493333334
mp-1207202,La(PPd)2,-1.006872054428572
mp-1207207,Rb(AsIr)2,-0.4546972955000001
mp-1207212,LiHfS2,-1.8011819557291666
mp-1207213,K2LiCuF6,-2.6276443409806665
mp-1207218,Ce(PPd)2,-0.9615809224285712
mp-1207222,Rb2VCl6,-1.942801042728889
mp-1207229,Cs2MoBr6,-1.1631913950957855
mp-1207238,Tm2CdPd2,-0.830933717333334
mp-1207239,Pr2GaNi2,-0.4455059640000002
mp-1207243,Sm2GaCo2,-0.3298953893333333
mp-1207248,La2CdAu2,-0.7484800040000004
mp-1207267,Pr4CoI5,-1.067537125
mp-1207275,Dy3(In2Co)2,-0.3697444122222219
mp-1207285,Ba2GdReO6,-3.0111813922500006
mp-12073,Ba(BIr)2,-0.4989541073333342
mp-1207345,Cs2PrF6,-3.3312639553335632
mp-1207365,Cs(PIr)2,-0.6500920450147788
mp-1207380,ZrIn,-0.3144682599999999
mp-1207381,Zr(SiPd)3,-0.7334867899999986
mp-1207386,ZrNF,-2.76393922369
mp-1207387,Zr2Ag3F14,-2.8027854003505266
mp-1207393,Zr3Ga5,-0.6021870800000011
mp-1207395,ZrHg3(SBr3)2,-0.8683789534375004
mp-1207396,Zr2FeB2Ru5,-0.4276188361666655
mp-1207398,Zr6Be15Pd8,-0.4726823750000011
mp-1207399,Zr3Tl2(CuSe4)2,-0.9573411532500008
mp-1207408,Zr5Si3N,-1.1230703097088888
mp-1207410,Zr3Tl2(CuS4)2,-1.4532038110000003
mp-1207413,Zr5Sn3C,-0.6819211527777777
mp-1207414,Zr9(CoP2)2,-0.9528150306190478
mp-1207415,Zr6Be15Co8,-0.3113525022413792
mp-1207418,ZrFeAs,-0.7594409249999998
mp-1207419,Zr3Bi5,-0.2988913475000005
mp-1207422,Zr6Be15Cu8,-0.2470272343103453
mp-1207424,Zr2InAu2,-0.5119612210000006
mp-1207425,Zr6Be15Ni8,-0.3875004015517245
mp-1207426,Zr6Zn23Si,-0.2951610456666666
mp-1207428,ZrNiAs,-0.8893754400000008
mp-1207432,Zr6Zn23Ge,-0.2892961458333337
mp-1207437,Zr9Re4O3,-1.302489026171877
mp-1207440,Zr7Pt10,-1.075277669117646
mp-1207441,Zr3AgHg3F20,-2.9873892847086427
mp-1207448,Zr3Sb4Pt3,-0.7986406965
mp-1207450,Zn9Fe4,-0.039121616923077
mp-1207461,Zr6PI14,-1.0339997992176873
mp-1207463,Zn3(SnPt)2,-0.4569668828571426
mp-1207469,ZnCuAsO5,-1.4690811273437507
mp-1207470,ZnAg2(PS3)2,-0.6473940972781385
mp-1207474,Zr4N3OF5,-3.1486577882184608
mp-1207475,YbZnRh,-0.6113466447222221
mp-1207478,Zr(ClO4)4,-0.9627719394304758
mp-1207486,ZrBr4,-1.3645234375000002
mp-1207493,YbSiPd,-0.8085250030555553
mp-1207495,Zr6GeI14,-0.9645765126190482
mp-1207498,Zr6SiI14,-0.995906581428572
mp-12075,Tb(FeB)2,-0.4322908353333318
mp-1207502,Zn2Cr5(PO4)6,-2.533621138957529
mp-1207504,Zn22Ni3,-0.1292913876000002
mp-1207507,Zr6CoI14,-0.9070098326190484
mp-1207511,Zr6FeI14,-0.9304807680952378
mp-1207512,Zn3Au5,-0.1763331329687498
mp-1207513,YbTl(WO4)2,-2.259256824722222
mp-1207514,YbPPd,-1.0589087234126986
mp-1207516,ZrTe7SeCl6,-0.9318351097935832
mp-1207518,YbRhO3,-2.289985194583333
mp-1207519,YbNi4Sn,-0.3634692811111115
mp-1207525,YbNiAs,-0.8993387172222226
mp-1207526,Zr6FeS2,-0.9407800804166678
mp-1207530,Zn11(B4Rh9)2,-0.4383424723423421
mp-1207534,Zn3Cd3(TeO6)2,-1.6437861855000002
mp-1207538,Zn17Co3,-0.0855706726666667
mp-1207540,Zn10Si(B4Rh9)2,-0.4642624915315307
mp-1207541,YbMgGa4,-0.3998997149999995
mp-1207543,Zn10Ge(B4Rh9)2,-0.4419641603153143
mp-1207550,YbMgAg,-0.324649575277778
mp-1207551,YbMoO4,-2.8296625461111105
mp-1207556,YbGa2Cu3,-0.3164107527777773
mp-1207557,YbMnB4,-0.4846908220258612
mp-1207558,YbGa2Ag,-0.4856288149999996
mp-1207559,Yb3H2Pb,-0.6412609603733331
mp-1207560,Zr6MnCl14,-2.01939476334739
mp-1207561,Zr8Bi13,-0.3061596648809526
mp-1207570,YbAl2Cu3,-0.3025216544444446
mp-1207571,Yb3SnH2,-0.6891122695400002
mp-1207575,YbCoGe,-0.5210321205555554
mp-1207579,Yb5As3,-1.1230456922916665
mp-1207584,Yb5P7Pd9,-0.9550004163492056
mp-1207585,Zn10Cu(B4Rh9)2,-0.4129690753153147
mp-1207588,Yb5(Si5Ir2)2,-0.684708294122807
mp-1207590,YbCuSn,-0.5208230338888894
mp-1207592,Yb4(Al8Pt3)3,-0.8456339972072073
mp-1207598,YPd3S4,-1.217440153229167
mp-1207599,Yb2Si,-0.4542783286111109
mp-12076,Tm(FeB)2,-0.4535406299999991
mp-1207600,YCoB4,-0.581515329861111
mp-1207603,YGa3(BO3)4,-2.7887443325833337
mp-1207607,YScSi2O7,-3.645444973371213
mp-1207608,YZnRh,-0.7314735294444444
mp-1207613,Yb2(Al3Ir)3,-0.7576106541666664
mp-1207614,Yb3Ni19B10,-0.4245445541666672
mp-1207617,Yb2(Ga3Ir)3,-0.624288117738095
mp-1207618,YSeClO3,-2.4786638296145136
mp-1207621,Yb3(Si3Pd10)2,-0.7918370748275863
mp-1207626,Yb2(Ga3Rh)3,-0.6667316080952378
mp-1207627,YGePd2,-0.9160925895833332
mp-1207629,YRhO3,-2.5700101974166656
mp-1207630,Yb(Sb3Os)4,-0.1210066262745098
mp-1207633,YSiIr2,-0.9837320695833328
mp-1207634,YFeB4,-0.6027003965277776
mp-1207636,YbCu5Sn,-0.2621341688095237
mp-1207639,Yb5Co19P12,-0.8220252994775135
mp-1207641,Yb6Ni20P13,-0.8503473669597077
mp-1207642,Yb3(P3Pd10)2,-0.7184444786699511
mp-1207644,Yb2ReC2,-0.0973627046666663
mp-1207646,YTl(WO4)2,-2.4950079823611104
mp-1207650,YbAg(WO4)2,-2.1377601804166653
mp-1207651,YMnFeO5,-2.5839762440873137
mp-1207654,Zr54Os17,-0.2535819485915502
mp-1207656,YPtF7,-2.926636281573704
mp-1207658,Yb(FeSb3)4,-0.1623263762745093
mp-1207659,YAg(WO4)2,-2.3651297588888887
mp-1207662,YGeRh2,-0.8755290337499986
mp-1207668,TmSeF,-2.992018498955695
mp-1207669,TmOF,-4.348701754424444
mp-1207670,YbSnF7,-3.1447579758329627
mp-1207671,YAgS2,-1.6519177335416666
mp-1207672,TmNiAs,-1.0422733794444454
mp-1207673,Yb2Sn5Pd3,-0.7088058235833337
mp-1207674,TmPPd,-1.2745178856349213
mp-1207675,TmSiIr,-1.1053029461111106
mp-1207678,U3Bi4Rh3,-0.409600253500001
mp-1207679,Yb2(GePt3)3,-0.7115407152380949
mp-1207680,YGeBiO5,-2.6325781394791665
mp-1207684,TmMn2SiC,-0.4911427475287368
mp-1207685,Y6RhI10,-1.257286375882353
mp-1207686,TmTiClO3,-3.5539123767238894
mp-1207691,YCu5Sn,-0.2565845290476183
mp-1207692,Y(ZnP)3,-0.6085226855782311
mp-1207694,TmSbIr,-0.8812955794444454
mp-1207698,Y(Al5Ru)2,-0.5193395714102564
mp-12077,Y(FeB)2,-0.4372509660000006
mp-1207702,TmSbRh,-0.988817580277777
mp-1207703,Y5SbPt2,-0.9935297752083336
mp-1207705,TmRhO3,-2.623755645916667
mp-1207706,TmMnB4,-0.6782637323036388
mp-1207707,Y2(Al3Ir)3,-0.8711770844047625
mp-1207709,YMnGaO5,-2.718296383462313
mp-1207711,Y2(Al3Rh)3,-0.8426193219047613
mp-1207714,Y2(Al3Pd)3,-0.6957353936904767
mp-1207715,Yb(Al5Re)2,-0.3003803573076923
mp-1207716,TmNiGe2,-0.6824327864583335
mp-1207717,Y5SbPd2,-0.7810253589583338
mp-1207719,Yb6Ta4Al43,-0.2479534342452829
mp-1207720,Y(ClO4)3,-1.084705726132083
mp-1207724,Y2Si3Rh,-0.9389237119444438
mp-1207726,Y2Si3Pd,-0.8980780523611109
mp-1207727,Y5(SiSb)2,-0.9506431101851862
mp-1207728,Y5(GeSb)2,-1.005230970740742
mp-1207735,Y8Te3,-0.7305982319696963
mp-1207736,Y2(Ga3Ir)3,-0.6756289776190475
mp-1207739,TmTl(WO4)2,-2.5093021994444435
mp-1207742,Y2OsC2,-0.3784154943333334
mp-1207747,Yb6Al43V4,-0.2516921442452832
mp-1207750,Y5(SiB4)2,-0.6771042478888897
mp-1207753,Y5BiPd2,-0.7076661789583341
mp-1207755,Yb6Nb4Al43,-0.2728620524528302
mp-1207756,Y4Si5Ir9,-0.9719703060185196
mp-1207757,Y3Tl5,-0.319468680625
mp-1207758,Y5Ni2Sb,-0.5365983677083337
mp-1207769,Yb12Ga19Au25,-0.6472839521428574
mp-1207770,Y5BiPt2,-0.923874129583334
mp-1207773,Y5(NiTe)2,-0.8169905224074078
mp-1207775,Y2(Ga3Rh)3,-0.7190311665476189
mp-1207777,Y3Pd,-0.474165636875
mp-1207780,Y3Rh,-0.5139347093749995
mp-1207781,Y3Ru,-0.3063886187500007
mp-1207784,Y5(CoTe)2,-0.7403937485185195
mp-1207785,Y3Ir,-0.5691182568750008
mp-1207786,Y3Fe2Si3,-0.6696778149999991
mp-1207787,Y4MgPd,-0.3523915194444432
mp-1207790,Y12Al7Si,-0.4130422352499991
mp-1207793,Y3Sb5O12,-2.6596754735
mp-1207794,Y4CdNi,-0.3009500722222213
mp-1207795,Y3(SiNi3)2,-0.6469487381818172
mp-1207797,Y3Ga9Cu2,-0.4922239157142855
mp-1207798,Y3BCl3,-1.7732827654447618
mp-1207799,VCoAs,-0.4156924066666659
mp-1207802,Y4CdIr,-0.5215846180555547
mp-1207804,Y3(SbPd2)4,-0.8414082009999997
mp-1207805,VSi3Mo4,-0.4753435124999985
mp-1207807,Y4MgRh,-0.3984046806944441
mp-1207808,Y3BBr3,-1.2996445404761905
mp-1207809,Y12Co5Bi,-0.2751005947222222
mp-1207810,Y4MgPt,-0.5022904486111107
mp-1207811,Y6Co2Sn,-0.3354696999999997
mp-1207813,Y4CdPt,-0.6125399555555558
mp-1207814,Y3(Al3Os)4,-0.5952718702631576
mp-1207816,Tm3(Al3Os)4,-0.5807798460526312
mp-1207818,Y4CdPd,-0.4614047688888885
mp-1207820,Y3NiGe2,-0.812858642916666
mp-1207822,Y4MgIr,-0.4258046844444436
mp-1207825,Y4MgNi,-0.2036557302777772
mp-1207828,WCl2,-1.1215085396733333
mp-1207829,Yb6Mn4Al43,-0.2174799015777493
mp-1207830,Y(Fe2Ge)2,-0.3245129669047618
mp-1207833,Yb6Al43Cr4,-0.2117906284905666
mp-1207835,Tm3SbO7,-3.474503297159092
mp-1207841,V5Si3N,-0.7684227758199995
mp-1207844,Y3TlF10,-4.127424702278572
mp-1207854,UNiAs,-0.5614542183333336
mp-1207855,V5Te8,-0.3426579830769229
mp-1207857,Y6Ta4Al43,-0.310593208018868
mp-1207858,Y6Ti4Al43,-0.3440881188679248
mp-1207859,Y(Al5Re)2,-0.3558362047435901
mp-1207860,Y6Nb4Al43,-0.3363248617924529
mp-1207861,VCd2BiO6,-1.8734082417500004
mp-1207868,UAgF6,-3.285673706934168
mp-1207878,Y2(Ga3Ru)3,-0.5440445426190479
mp-1207879,UV5P3,-0.8173521906349193
mp-1207882,UMnC2,-0.1165244486637941
mp-1207889,WI2,-0.2092653116666664
mp-1207891,Y3Al3Cr2O12,-3.431896871875
mp-1207893,V5Se8,-0.7162077406730768
mp-1207897,Y2Hf2(MoO4)7,-2.651810335042735
mp-12079,K(CoS)2,-0.8920273978500006
mp-1207902,V2(Ni7B2)3,-0.2766092348275871
mp-1207903,V3Pb5O12F,-2.1390890031519043
mp-1207905,Y2Ge2Ru,-0.8153892583333331
mp-1207909,UTaN2,-1.4763680599400004
mp-1207911,Y2(GePt3)3,-0.7722049865476188
mp-1207913,UNbN2,-1.485484248065001
mp-1207914,USnI6,-0.6944909624999998
mp-1207915,Tm4CdNi,-0.3166347405555558
mp-1207916,Tm3Sc2Al3O12,-3.844887971
mp-1207919,UGeI6,-0.6021455956250001
mp-1207932,TmGa3Os,-0.4797505199999998
mp-1207933,Y3Sc2(GaO4)3,-3.393275045875
mp-1207934,U4Ga12Ni,-0.2661731111764709
mp-1207937,Y10B7C10,-0.4220376820987652
mp-1207939,Yb10Ni28As19,-0.6785280452046795
mp-1207941,Y6InCo2,-0.2687259788888888
mp-1207945,TmIn2Pd,-0.6363884930833329
mp-1207946,Y3In2(GaO4)3,-2.884306549125
mp-1207947,TmZnGe,-0.6288745544444444
mp-1207951,Tm5Re2C7,-0.4201190176190477
mp-1207953,Tm5(GeSb)2,-0.936977375740741
mp-1207954,U2Mn3Si,-0.2514292881609196
mp-1207955,TmZnRh,-0.7683273661111105
mp-1207957,Y2Fe14C,-0.0691975743627458
mp-1207958,TmZnSn,-0.5411230544444449
mp-1207959,Tm3Fe2Si3,-0.6958833731249996
mp-1207961,Tm5SbPt2,-1.0147506814583336
mp-1207962,Tm2MnC4,-0.2841629323316915
mp-1207965,Tm3Co2Si3,-0.7776602831249999
mp-1207966,U2(Al3Ir)3,-0.6271982585714296
mp-1207967,Y3Cr2(GaO4)3,-3.009639788874999
mp-1207970,Tm5BiPt2,-0.9388789370833336
mp-1207971,Tm(Co2Ge)2,-0.3943392711904759
mp-1207973,UGaAu,-0.1900388849999998
mp-1207976,TmCoB4,-0.6257950569444451
mp-1207982,Tm3Si3Ni,-0.8313554214285708
mp-1207984,Tm5Ni2Sb,-0.5563674489583326
mp-1207986,Tm5SbPd2,-0.7903827608333334
mp-1207987,Tm5BiPd2,-0.7085512002083334
mp-1207988,Tm2(Al3Ir)3,-0.8532717794047622
mp-1207989,Y12InNi6,-0.360380931578947
mp-1207990,TmFeB4,-0.6499344127777782
mp-1207992,Tm2Be2SiO7,-3.60810613920139
mp-1207996,Tm2(Al3Pd)3,-0.6734279261904764
mp-1207998,Y4MgCo,-0.1460498111111109
mp-1208,ErAl2,-0.5070264799999998
mp-1208000,Tm2Cu(GeO3)4,-2.5458849295614043
mp-1208001,Tm3(SbPd2)4,-0.8231887670000001
mp-1208005,Tm2(Al3Rh)3,-0.8254137733333339
mp-1208007,Tm(Al5Fe)2,-0.3490120725641022
mp-1208008,Tm2Si3Pd,-0.8641348977777774
mp-1208009,UCd(MoO4)4,-2.293472145681818
mp-1208010,V3(PbO3)4,-2.0528389507894733
mp-1208012,Tm4CdIr,-0.5467551988888886
mp-1208013,TlV(SO4)2,-2.0934805780208325
mp-1208014,Tm2Be2GeO7,-3.30608333670139
mp-1208016,Tm5Ni2Bi,-0.4728986995833333
mp-1208020,Tm2B6Rh,-0.6762317760185184
mp-1208021,TlSO4,-1.7775060421875004
mp-1208024,Tm12Co5Bi,-0.3178748797222231
mp-1208027,Tm2(Ga3Ru)3,-0.5220944994047615
mp-1208029,Tm4MgNi,-0.2154585902777774
mp-1208030,U3Ni3Bi4,-0.1381916094999994
mp-1208033,TlPt3O4,-0.8907440262499993
mp-1208034,U2NiC3,-0.1472892150000007
mp-1208037,Tm4CdPt,-0.6267308980555555
mp-1208042,TmAg(WO4)2,-2.376274093472221
mp-1208045,TlFe(SO4)2,-1.953216332187501
mp-1208047,TmAgS2,-1.641252010729167
mp-1208048,TlVSeO5,-1.724633084199218
mp-1208049,Tm4MgRh,-0.418694807361111
mp-1208051,Tm2Sc3Si4,-0.8233287243518517
mp-1208052,Tm6Co2Sn,-0.3668444127777788
mp-1208053,U2Nb3Si4,-0.5271000705555543
mp-1208056,Tm3(Si3Pd10)2,-0.8352112841379306
mp-1208057,Tm2Mo4O15,-2.60163029906746
mp-1208058,TlBi3F10,-2.710528577635713
mp-1208059,Tm2(Ga3Rh)3,-0.6950407561904767
mp-1208060,Tm4MgCo,-0.1636932040277781
mp-1208066,TmCu5Sn,-0.2518796265476192
mp-1208067,Tm4CdPd,-0.4699252938888889
mp-1208070,U3TlF13,-3.758505149145294
mp-1208073,Tm2(Ga3Ir)3,-0.6504372604761903
mp-1208084,Tm2Fe17C3,-0.0905175893939387
mp-1208086,Tm3(P3Pd10)2,-0.737741441773399
mp-1208096,TlBi(WO4)2,-1.9759407595833327
mp-1208098,Tm(IO3)3,-1.4873820722756412
mp-1208100,Tm3Fe2Ge3,-0.6250456337500001
mp-1208102,Tm3Al5O12,-3.73155523675
mp-1208111,TlPb2Br5,-0.9186570225
mp-1208115,V2NO5,-2.01870264732875
mp-1208125,Tm3Ga5O12,-2.999945218
mp-1208126,Tm12Al7Si,-0.3788840829999998
mp-1208129,U2(Fe7B2)3,-0.2337820410344826
mp-1208135,Tm12Fe2Pb3,-0.2292488741176475
mp-1208140,Tl3GeF7,-2.451594840757273
mp-1208141,UMo4PbO16,-2.3051106025000005
mp-1208144,Tm2Mn17C3,-0.1000511043547553
mp-1208145,Tm(Al5Re)2,-0.3469864171794873
mp-1208154,Tl2VF6,-2.610150988571112
mp-1208160,Tm6Al43V4,-0.3041026712264148
mp-1208161,U6TlF25,-3.868275376398437
mp-1208162,Tl2GeF6,-2.568196218571112
mp-1208164,Tl2SbF5,-2.41170033386875
mp-1208165,YZr6(PO4)9,-3.24948716356685
mp-1208170,TiVP,-1.0808140353571432
mp-1208174,Tl2V3O8,-2.1447512949999994
mp-1208176,Zn61Pd8,-0.182889338768116
mp-1208181,Tl2PtI6,-0.386111304444444
mp-1208183,Tm6Ta4Al43,-0.2970043441509433
mp-1208184,Tm6Nb4Al43,-0.3227484719811324
mp-1208190,TlBi(MoO4)2,-1.913394046249999
mp-1208191,Tm6Ti4Al43,-0.3300491287735849
mp-1208192,Tm12In2Fe3,-0.1902422517647061
mp-1208201,TlSbAs2PbS6,-0.644626255113637
mp-1208205,TiGeRh,-0.7906136416666654
mp-1208206,Tm5In4,-0.4015576101851855
mp-1208208,Y3Ga3(FeO6)2,-2.8778096421250003
mp-1208214,Tm2(SO4)3,-2.804751436973038
mp-1208217,TiAsRu,-0.7173120622222215
mp-1208218,U6Nb4Al43,-0.2047507943396228
mp-1208221,Ti5Te8,-0.7183507553846155
mp-1208222,Ti11CuP8,-1.1071120331785709
mp-1208223,Ti5S8,-1.7955491749999994
mp-1208224,Th2Sc(B2C)3,-0.59715151625
mp-1208225,TiBi6(PO8)2,-2.2635895746857138
mp-1208226,Th2Al4Si2Au3,-0.6746719309090902
mp-1208228,Ti3NbAl2,-0.3232801066666664
mp-1208232,ThSiOs2C,-0.5223560460000002
mp-1208239,Ti5CuSn3,-0.353879591111111
mp-1208240,Tm6InCo2,-0.2951609911111114
mp-1208242,Ti6Be15Cu8,-0.227846710517242
mp-1208248,Ti2Cr4Si5,-0.5619263331818174
mp-1208257,Ti4CrBi2,-0.2159829264285712
mp-1208263,TmNi3Ge2,-0.5800948479166661
mp-1208278,Th(P3Ru)4,-0.6954190231092425
mp-1208280,TiAgPO5,-2.594827214925595
mp-1208283,Ti5CoSn3,-0.3802608049999997
mp-1208288,U6Ta4Al43,-0.1811227266981128
mp-1208292,TbAl3Cu2,-0.4336195399999993
mp-1208295,TiTlAsO5,-2.321469533437501
mp-1208296,TbZnGe,-0.6820985374999994
mp-1208298,U6P13Rh20,-0.8423511595238088
mp-1208299,TbSBr,-2.213019359375
mp-12083,CrIr3,-0.2405941899999994
mp-1208300,TbPPd,-1.265726592857143
mp-1208303,TbCdPd,-0.6928415766666668
mp-1208305,Tl5V3O10,-1.8823372283333333
mp-1208308,Te2Cl,-0.4426470719199997
mp-1208310,TbSiPd2,-0.9807247749999995
mp-1208316,TbGePd2,-0.914411859375
mp-1208317,TbGa2Ag,-0.5198697102083334
mp-1208318,TbSiPt2,-1.1565140993750005
mp-1208319,TbTiClO3,-3.541549195335
mp-1208320,TbNiP,-1.215128142857143
mp-1208321,TbAl3(BO3)4,-3.259970675416666
mp-1208323,Ti5CuBi3,-0.1665775361111106
mp-1208325,TlCu(PO3)3,-2.2607061999617346
mp-1208327,TbAl3Ni2,-0.6558951977777778
mp-1208328,TcF6,-2.3247890742342854
mp-1208331,TbSbIr,-0.9022047475000008