material_id,pretty_formula,formation_energy_per_atom
mp-1211215,Li2Nd(NO3)5,-1.5265931996297093
mp-1211223,Li3Yb3(TeO6)2,-2.3291023178750003
mp-1211226,Li3Y3(TeO6)2,-2.7769823395000004
mp-1211227,LaHf2F11,-4.300150197006429
mp-1211229,La(ZnP)3,-0.6237077508163266
mp-1211232,LaAl3Ni2,-0.6304972949999996
mp-1211233,LiDy6B3O14,-3.613737961944446
mp-1211234,Rb2Cd3H10S4O21,-1.8166876314987497
mp-1211238,La2SbI2,-1.4349810250000004
mp-1211241,LiNd6B3O14,-3.5040552266319445
mp-1211246,LaSiPd,-0.98425739625
mp-1211247,KYBeF6,-3.902181822052592
mp-1211248,Li3Tm3(TeO6)2,-2.80178945875
mp-1211249,KTb(CO3)2,-2.584938120049999
mp-1211252,Li2La(NO3)5,-1.5449630526731872
mp-1211256,Li3Sm3(TeO6)2,-2.7531810296249994
mp-1211257,KTl(SO4)2,-1.9545576149375
mp-1211258,La3TiGa5O14,-3.02282073923913
mp-1211259,Lu6Ta4Al43,-0.2874843919811324
mp-1211260,KLaF4,-4.045246083793333
mp-1211262,LaBPt4,-0.8107091913888892
mp-1211263,La(Al5Fe)2,-0.3510507461538458
mp-1211264,KWCl6,-1.5799367590699998
mp-1211269,La(Al5Ru)2,-0.5215314011538456
mp-1211270,KYbBr3,-1.9880351579333333
mp-1211273,LaCrSe2O,-1.959362631687501
mp-1211274,KY(CO3)2,-2.575147420883334
mp-1211277,La3ZrGa5O14,-3.048917695326088
mp-1211281,La3HfGa5O14,-3.081912337065219
mp-1211285,KTa(PO4)2,-2.9448988483452374
mp-1211290,La3Ta(Cl3O2)2,-3.2307771042542868
mp-1211291,Na20Zn7Sn12,-0.1918068817948714
mp-1211293,La(YS2)3,-2.520127779375
mp-1211301,KSm(CO3)2,-2.572546954383334
mp-1211304,Lu6Ti4Al43,-0.3208807749056601
mp-1211306,KSm(MoO4)2,-2.586805813444444
mp-1211308,Nd12InNi6,-0.2746075668421056
mp-1211311,La2(Al3Ir)3,-0.8354360835714293
mp-1211312,La2(Al3Rh)3,-0.8002797814285714
mp-1211316,KV2AgO6,-2.100319153383334
mp-1211320,KRb2InF6,-3.023519510014
mp-1211322,Li2Sm(NO3)5,-1.5212150839050715
mp-1211323,La2Si3Rh,-0.9300648483333328
mp-1211326,KSmTiO4,-3.3780317369761903
mp-1211329,La2Sn3,-0.7662049605
mp-1211332,KZn(PO3)3,-2.572168571068877
mp-1211333,KSm(WO4)2,-2.657858445944445
mp-1211338,KTm(CO3)2,-2.590890491883333
mp-1211340,Li6Tm(BO3)3,-2.8459770716885955
mp-1211343,KNdF4,-4.002013891293334
mp-1211350,KTh2F9,-4.319428866142501
mp-1211353,KSm(WO4)2,-2.655481168861112
mp-1211354,La6Al3Ni4SnRu,-0.521164074666666
mp-1211358,LaSbIr,-0.8940701799999999
mp-1211362,Li(BH)6,-0.3893411971835897
mp-1211367,KHg5Cl11,-1.145614230521177
mp-1211368,KLaCuTe4,-0.8964317425714289
mp-1211375,KSr2Br5,-2.0529005345416667
mp-1211377,KSbCl6,-1.47897828407
mp-1211382,KSr2Cl5,-2.724592057204166
mp-1211383,Li2Ni2(MoO4)3,-1.9626390741228072
mp-1211384,La4CdPt,-0.5512625158333334
mp-1211385,LaZrF7,-4.268675650925555
mp-1211386,Li3Pr3(TeO6)2,-2.72691145825
mp-1211387,LaNiAs,-1.0718708975000009
mp-1211388,LaHfF7,-4.358969967036667
mp-1211389,La4Mg3Ag10,-0.2918237290196079
mp-1211391,KPr(MoO4)2,-2.572270041083333
mp-1211395,KTaF6,-3.6167514281425
mp-1211396,KNd(MoO4)2,-2.577899131083333
mp-1211400,KLa(SO4)2,-2.6922401586875004
mp-1211402,La3SiI3,-1.2647671271428569
mp-1211404,La5Pb3Cl,-0.9825171553622224
mp-1211407,La3Ni3Bi4,-0.6447194330000002
mp-1211408,Lu(Al5Re)2,-0.3409973834615384
mp-1211409,KTb(MoO4)2,-2.6142303085833327
mp-1211413,KMo2(P2O7)2,-2.598605561656463
mp-1211416,KMg3Cu(AsO4)3,-2.1938724029
mp-1211420,La4CdIr,-0.4712298120833331
mp-1211421,KLu(MoO4)2,-2.632594888583333
mp-1211423,KLu3F10,-4.336438972492857
mp-1211425,KPr(WO4)2,-2.6493524564999995
mp-1211429,La3(P3Pd10)2,-0.708618591600985
mp-1211431,LaCu5Sn,-0.2599320600000001
mp-1211433,Li6Yb17Hg9,-0.3785154347916666
mp-1211438,La4CdPd,-0.4048465062499999
mp-1211440,K2PbCl6,-1.6723667428400002
mp-1211441,Nd23Mg4Ni7,-0.1645619970098049
mp-1211443,KLa(MoO4)2,-2.5996131110833325
mp-1211446,Li7PSe6,-0.9595739292357568
mp-1211452,LaSBr,-2.362278126458335
mp-1211457,La3SiCl3,-1.95274050354
mp-1211458,LaSbRh,-1.016106163333332
mp-1211464,LaSI,-2.139078254791667
mp-1211465,Li3NiF6,-2.645330885714
mp-1211468,Li6Er(BO3)3,-2.8430427869078945
mp-1211471,KP15,-0.1011555491607154
mp-1211472,La4Ge7,-0.7616336163636365
mp-1211473,KLa(WO4)2,-2.6792839185833337
mp-1211474,K2Ti(CuS2)2,-1.3497078803888896
mp-1211476,La4MgRh,-0.3430962555555557
mp-1211477,La3AsBr3,-1.709861769285714
mp-1211478,KHo3F10,-4.322704567850001
mp-1211481,Na3Er(PO4)2,-2.9644094439923463
mp-1211485,La3AuI3,-1.1683982992857145
mp-1211486,LiPr6B3O14,-3.4800755606944453
mp-1211487,K2YbF5,-3.224530120452083
mp-1211492,KY2F7,-4.208691934549667
mp-1211495,La3PtI3,-1.3246857089285713
mp-1211497,KSc(WO4)2,-2.620431882333332
mp-1211500,La10Al5I8,-0.9430329634782614
mp-1211503,La6Al4Fe9As,-0.3260010139999991
mp-1211505,LiUBr4,-1.3781942583333335
mp-1211506,KTm2F7,-4.255267960049666
mp-1211508,La3IrI3,-1.2702634199999996
mp-1211510,KLiSm2(MoO4)4,-2.5837795073472214
mp-1211516,KSm2Cl7,-2.647211300498668
mp-1211517,KLu(CO3)2,-2.5854260590500004
mp-1211520,KFeBr4,-0.9641830171666664
mp-1211521,KTb2F7,-4.236456150633
mp-1211524,LaSb3Pd,-0.7352255739999997
mp-1211525,KZr6BI14,-1.0336583541515152
mp-1211526,KTb2Cl7,-2.662372520332
mp-1211527,KMn(PO3)3,-2.6538763836128174
mp-1211532,KTm(MoO4)2,-2.6182359486527766
mp-1211533,K2YCl5,-2.525928640704167
mp-1211534,KPr(PSe3)2,-0.8121355381705364
mp-1211536,K2TmF5,-3.808822771597917
mp-1211538,KNdTiO4,-3.360800599714285
mp-1211540,KY2Cl7,-2.6525873442486665
mp-1211541,Li6Sm(BO3)3,-2.825239715109648
mp-1211542,Li3Ho3(TeO6)2,-2.7941023028750003
mp-1211543,LaAlRh,-0.8413817504166671
mp-1211547,K2ThO3,-2.960706194125
mp-1211549,La3SbO7,-3.3810225794318187
mp-1211552,Li3Mn2(SeO3)4,-1.752060234552634
mp-1211555,LaGa4Os,-0.4744880252777774
mp-1211556,KHo(MoO4)2,-2.615169344833332
mp-1211560,KRbGeO3,-2.0849798925833327
mp-1211564,Li(ErGe)4,-0.7809287582407399
mp-1211567,La4AsBrO8,-3.3438785185714286
mp-1211572,KZr6CI14,-1.0187650878636367
mp-1211577,KSr2Si4O10F,-3.355169124584629
mp-1211578,LaIn2Cl5,-1.9925395245375
mp-1211580,KGd(MoO4)2,-2.600898323999999
mp-1211581,La2Ta3(SeO4)2,-3.1485824938125004
mp-1211591,La3(GaRh)2,-0.771612496428571
mp-1211594,KHo2Cl7,-2.6518194878320003
mp-1211600,KNd(SeO4)2,-2.018305840432291
mp-1211601,KEr(MoO4)2,-2.615594389833332
mp-1211603,La6Al5Fe9,-0.2195864634999992
mp-1211607,Li3La2(BO3)3,-3.1342886356617647
mp-1211609,K3Mg2Cl7,-2.248937284040556
mp-1211611,KNaTi2(PO5)2,-3.036924922196428
mp-1211612,KDy3F10,-4.319985763921428
mp-1211618,KSm(SO4)2,-2.667915409590277
mp-1211621,LiZnP2HO7,-2.442495516973295
mp-1211624,K4ZrO4,-2.362916462444444
mp-1211627,K3NaBe2F8,-3.3298499759657147
mp-1211628,KEr(CO3)2,-2.58698370455
mp-1211631,K3Tb(BO3)2,-2.848713441930556
mp-1211633,K2TcH9,-0.3331127797427768
mp-1211635,LaTi3(BiO4)3,-2.8797461739473675
mp-1211639,LiCa11Sb9,-1.0090365962698415
mp-1211641,KLa(SeO4)2,-2.0483259450156246
mp-1211643,KCaCl3,-2.6006077955560003
mp-1211645,K3TmF6,-3.647869160447334
mp-1211646,Li3Lu3(TeO6)2,-2.798388444875
mp-1211648,KCaBr3,-1.9540649806
mp-1211649,K4HfO4,-2.427182148000001
mp-1211654,K3DyF6,-3.623301139614
mp-1211656,KCr(SO4)2,-2.248688804104168
mp-1211659,K3Lu(BO3)2,-2.869360807763889
mp-1211662,K3TbF6,-3.616701617114
mp-1211665,K3LuF6,-3.655970479114
mp-1211670,KBi3F10,-2.8662479889214287
mp-1211671,La3Ge5,-0.7682346806250004
mp-1211678,KBeF3,-3.4282879848140007
mp-1211679,KCr(MoO4)2,-2.2230083781666665
mp-1211681,KSm(SeO4)2,-2.016055968001736
mp-1211686,KDy(MoO4)2,-2.614894993583333
mp-1211687,La5Ge3O,-1.3369208256944434
mp-1211689,Nd8Sb14Rh17,-0.8160783707692306
mp-1211690,KEr2Cl7,-2.647625013832001
mp-1211691,K2TbF5,-3.7865979074312506
mp-1211692,KCaEr2CuS5,-2.1003584943625
mp-1211695,K3ErF6,-3.635694984114
mp-1211698,Pr8Ni18P11,-0.9059450598455606
mp-1211699,K2RbLuV2O8,-2.759701476678572
mp-1211700,K3Nd(BO3)2,-2.8134032948472227
mp-1211701,K2RbYV2O8,-2.734168216916667
mp-1211702,K2RbDyV2O8,-2.741532399535715
mp-1211709,K2RbHoV2O8,-2.7454757973928565
mp-1211710,La3Sb5O12,-2.64893698625
mp-1211711,KNa2Ga3(SiO4)3,-2.743601594190476
mp-1211714,K3HoF6,-3.628896772614
mp-1211715,K4CrO4,-1.8684208935555549
mp-1211716,K2TiGe(PO5)2,-2.77443011004018
mp-1211717,K2RbTmV2O8,-2.7550284997738084
mp-1211720,K2RbErV2O8,-2.749305046678571
mp-1211723,La(Cu2P)2,-0.5424525436394554
mp-1211724,Mn2Tl2(MoO4)3,-1.9828513346700176
mp-1211725,K2RbNdV2O8,-2.699662493821429
mp-1211726,K2Rb4Fe2O5,-1.538039829019231
mp-1211727,K2RbYbV2O8,-2.516904729297619
mp-1211728,K3In(IO3)6,-1.2566935882678574
mp-1211730,K2SmBr5,-1.8546611633541663
mp-1211732,KAgTeS3,-0.7240800434513884
mp-1211736,K2RbPrV2O8,-2.6915541220357144
mp-1211737,K2TbCl5,-2.534457976225001
mp-1211738,K2RbLaV2O8,-2.719392049892857
mp-1211743,KAlSe2,-1.1467184591093753
mp-1211744,KTmP2O7,-3.167897049066018
mp-1211745,K2RbScV2O8,-2.714896960607142
mp-1211746,KCd(PO3)3,-2.5558237660688774
mp-1211747,K2Zr6BeCl15,-2.0691168591625004
mp-1211748,K3Ta2AsS11,-1.259590861080883
mp-1211750,KAlBr4,-1.4119992184166663
mp-1211757,K4MnO4,-1.7152146900127971
mp-1211761,K3Zr6BeCl15,-2.066610030316
mp-1211763,KGdTiO4,-3.3758955422142867
mp-1211767,K2RbSmV2O8,-2.714680366202381
mp-1211771,KDy2F7,-4.240019135133
mp-1211772,Li3Dy(NO3)6,-1.528764151224285
mp-1211774,K2SmCl5,-2.527456688829167
mp-1211780,K6Na4Tl13,-0.1260488073043476
mp-1211782,KZr6NCl15,-2.2115344981208693
mp-1211783,KAgTeS3,-0.7267630063680551
mp-1211784,KBa2I5,-1.7263439550625002
mp-1211788,La4CI6N,-1.5072772033233337
mp-1211803,K3Au3Br8,-0.8715144381428571
mp-1211804,K6Na14Tl18Cd,-0.1258422678974358
mp-1211805,Pr8Sb14Rh17,-0.8155812191025638
mp-1211807,K2Y2(PO4)3,-3.09679884083584
mp-1211808,K6Na14Tl18Hg,-0.1230727135384611
mp-1211809,K2Na4Fe2O5,-1.6097272913269232
mp-1211811,KErP2O7,-3.158368342172078
mp-1211812,K4Zr6FeBr18,-1.479160978
mp-1211816,KIn(PSe3)2,-0.4251639069205353
mp-1211819,K3Hf4Ag2F23,-3.495711692438645
mp-1211821,K4MoO5,-2.044548556658334
mp-1211829,KCe(SO4)2,-2.638691275770833
mp-1211836,K8Zr6BeBr20,-1.5271480085428577
mp-1211845,K3Sn2P5S18,-0.9095043017181124
mp-1211847,La12Co6Pb,-0.1927131131578947
mp-1211857,K4Mg(MoO4)3,-2.3424156307666664
mp-1211860,K2NdF5,-3.7404125930562495
mp-1211863,K2NdBr5,-1.8690653129375
mp-1211864,La4CdNi,-0.2497728391666663
mp-1211869,La3Sc2(GaO4)3,-3.3901155642500003
mp-1211871,La3In2(GaO4)3,-2.881661331125
mp-1211872,KCo2(PO4)2,-2.310679082510989
mp-1211873,K3Ti2P5S18,-1.1245556508252552
mp-1211874,K9Gd3Si12(O16F)2,-3.202193530678965
mp-1211876,KHf6CCl15,-2.1691963584521745
mp-1211877,K2PH3SeO8,-1.9150738288516784
mp-1211886,K2NdI5,-1.4713644838750002
mp-1211889,K2ZrFe(PO4)3,-2.8602729164060148
mp-1211890,K3YCl6,-2.4770603019393334
mp-1211892,K3Au3I8,-0.6896595063571426
mp-1211901,KLaTiO4,-3.3977974218571427
mp-1211903,K2NdCl5,-2.5373164709125
mp-1211906,K5Zn4Sn5H4S17N,-1.0498761223606945
mp-1211922,K(InGa)2,-0.1358613425999998
mp-1211924,K3HoCl6,-2.479966927606
mp-1211929,K2TeMo2(PO7)2,-2.3053864769353742
mp-1211936,K5Ta(TlAs2)2,-0.452528289791666
mp-1211937,K3Nb6SBr17,-1.1630086137824078
mp-1211941,K2TiZnO4,-2.5359586007499995
mp-1211942,HoCu5Sn,-0.2578970110714285
mp-1211943,K3In(IO3)6,-1.2540033070178571
mp-1211946,Mg5Pb(SO4)6,-2.442939885150463
mp-1211948,La2(Ga3Ru)3,-0.5363054689285717
mp-1211949,K3TmCl6,-2.4825560754393337
mp-1211950,K2CrF6,-2.908307833682222
mp-1211956,K2Na4ZnSn2,-0.1746700498333334
mp-1211957,K2LuF5,-3.80807102086875
mp-1211960,K2Ge2O3,-1.7784109321071426
mp-1211963,La8Sb14Pt17,-0.9067035328205132
mp-1211965,KLiMoO4,-2.315848374
mp-1211966,K3GdCl6,-2.475136668356
mp-1211967,KSr6Sc(SiO4)4,-3.4108104718035714
mp-1211976,La23Mg4Ir7,-0.4462531150980395
mp-1211977,K2CoI4,-0.8826002780000002
mp-1211981,K(SiAs)3,-0.2583602118571418
mp-1211982,LuNb6Cl13O3,-2.118942322440434
mp-1211984,La12Ni6Pb,-0.3086619010526313
mp-1211986,K2Hg3S4,-0.8371741314999999
mp-1211987,La4GeO8,-3.5556680961538465
mp-1211992,K9Nd(PS4)4,-1.3828884977095242
mp-1211993,K2FeI4,-0.8995058572857145
mp-1211998,LaIn2Cu9,-0.1365532649999998
mp-1212001,K3Si6H6N11,-0.9936932139192304
mp-1212002,KEr(SeO4)2,-2.0213427164739586
mp-1212005,KLiWO4,-2.314216401738095
mp-1212008,K2Hg3Se4,-0.5778632867083332
mp-1212009,KZr6MnCl14,-2.033790699467963
mp-1212010,K2DyF5,-3.79096600805625
mp-1212011,InSbSe3,-0.3799018659062504
mp-1212012,K10Tl7,-0.1039856611764706
mp-1212013,K2CoO3,-1.4817254562083342
mp-1212015,K9Ce(PS4)4,-1.3807058580428568
mp-1212017,K2LaI5,-1.5284976038750002
mp-1212020,K8Zr6MnBr20,-1.5027956381044338
mp-1212022,K2HoF5,-3.79466042336875
mp-1212024,K2ScSn(AsO4)3,-2.2339849007105266
mp-1212025,La3Tm2(GaO4)3,-3.4099670064583334
mp-1212029,K2LaBr5,-1.925569327
mp-1212033,La23Mg4Pt7,-0.5527111939215689
mp-1212039,K2CeBr5,-1.8473407879375
mp-1212044,KCaV2F9,-3.465017502080256
mp-1212045,K(FeSb3)4,-0.0880935848823532
mp-1212046,K2HoCl5,-2.5252512974750005
mp-1212049,K2Mg2(MoO4)3,-2.4147723168508763
mp-1212052,In2Hg5Te8,-0.2210700066666665
mp-1212053,K2MgGeO4,-2.342094203666666
mp-1212057,HoGa3Os,-0.4857634993333334
mp-1212059,Li3Tm(NO3)6,-1.5273067374147615
mp-1212060,InPb2F7,-2.769258725333
mp-1212062,K2DyCl5,-2.5291529943500004
mp-1212066,HoNiAs,-1.0493276125000008
mp-1212067,InSbO4,-1.9633315275
mp-1212069,Na2Sr(Ge4O9)2,-2.241978775545978
mp-1212070,La23Cd4Rh7,-0.4777177697058819
mp-1212072,HoPPd,-1.2731105003571426
mp-1212073,HoZnGe,-0.6599193941666665
mp-1212080,HoTiClO3,-3.5462399570016667
mp-1212081,InGaSnO5,-2.131414752031251
mp-1212084,K2CeI5,-1.4535771929375
mp-1212088,HoAlRh,-0.9398859124999994
mp-1212091,HoAsSe,-1.4225872099479169
mp-1212094,Lu10Ni28As19,-0.6990885429824566
mp-1212099,K2LaTa6(Br5O)3,-1.5591814670277773
mp-1212101,HoSbIr,-0.8939417441666665
mp-1212105,HoAl3(BO3)4,-3.261107855416667
mp-1212106,HoZnSn,-0.5783784666666669
mp-1212108,HoRhO3,-2.6048310547499995
mp-1212110,InSn2Cl5,-1.3233197195375
mp-1212115,HoFeB4,-0.6270743326388887
mp-1212117,HoCoB4,-0.6045135522222213
mp-1212118,HoSbRh,-1.005798935833332
mp-1212120,PrH10N(ClO4)2,-1.5860078857999989
mp-1212122,InCl2,-1.4077899513399998
mp-1212127,HoAl3Ni2,-0.6541968366666668
mp-1212130,Li3Tb(NO3)6,-1.5299374207778575
mp-1212131,HoTl(WO4)2,-2.503900530833333
mp-1212138,K2CeCl5,-2.5127825409125
mp-1212140,K2Er2(PO4)3,-3.118261979563909
mp-1212149,HoAl3(BO3)4,-3.2604313366666657
mp-1212153,La12(ReC3)5,-0.2545174767187497
mp-1212154,La23Cd4Ir7,-0.512867717205882
mp-1212161,HfSiRu,-0.9539232711111114
mp-1212162,Ho(Al5Fe)2,-0.354166767307692
mp-1212164,Hg3(SeF)2,-0.9141976924382144
mp-1212167,In5CuSe8,-0.4938039891964289
mp-1212171,Li3Y(NO3)6,-1.5262624508076184
mp-1212176,HfTlF5,-3.606261013707144
mp-1212178,InH9(SO6)2,-1.6765979467220835
mp-1212179,K2Cr2(PO4)3,-2.588191405484963
mp-1212180,Ho6InCo2,-0.2747537822222214
mp-1212187,Hf3Ti2Ga3,-0.4768608125
mp-1212188,K2Be3Ni2F12,-3.0655351765936847
mp-1212189,HfMnP,-0.9119041302422004
mp-1212191,HfNiAs,-0.7952756600000003
mp-1212195,Ho5SbPt2,-0.9995705018749996
mp-1212201,HoAg(WO4)2,-2.3746542652777776
mp-1212203,Ho5SbPd2,-0.7785822162500002
mp-1212204,La6Ni20As13,-0.6894532494871799
mp-1212206,Ho5(SiSb)2,-0.9116816644444448
mp-1212210,K3LiPb4,-0.2403170032083332
mp-1212213,Ho5BiPt2,-0.9262611393749998
mp-1212216,Ho5(GeSb)2,-0.9618596427777776
mp-1212218,La8Sb2Se15,-1.67527947010625
mp-1212221,Ho5BiPd2,-0.700659495
mp-1212227,Ho5(SiB4)2,-0.6796765254444447
mp-1212232,Ho4Ga12Pd,-0.60207000117647
mp-1212234,Ho6Co2Sn,-0.3426574872222229
mp-1212237,Hg3S2BrCl,-0.62446389743
mp-1212241,Nd8Ni18P11,-0.9251530936293432
mp-1212243,HoTl(MoO4)2,-2.44512562
mp-1212246,Ho5(In2Pt)2,-0.8152754859090905
mp-1212249,Hf3AgHg3F20,-3.0675706173012345
mp-1212252,HoIn2Pd,-0.6491001822500003
mp-1212254,Li3Yb(NO3)6,-1.4366727426230952
mp-1212255,Ho4Ga12Pt,-0.6194340794117645
mp-1212256,Ho3(Al3Os)4,-0.5887720263157893
mp-1212260,Ho3(Al3Ru)4,-0.6635288923684216
mp-1212265,K4Zr3Te17,-0.6795465245624998
mp-1212266,K2Th(NO3)6,-1.5344178994856796
mp-1212270,Li3Lu(NO3)6,-1.5239621481885703
mp-1212275,Ho5CuPb3,-0.4795037583333328
mp-1212281,NaGaGeO4,-2.2176004478571425
mp-1212283,Ho4CdIr,-0.5353622720833329
mp-1212285,Ho7C2I12N,-1.3363439478354548
mp-1212287,Ho3B7Mo,-0.6071013271212125
mp-1212289,Ho6Ni20P13,-0.9167001505494504
mp-1212299,Ho4CdNi,-0.3036953066666665
mp-1212301,Ho3SbO7,-3.4488404117045466
mp-1212304,Ho4MgRh,-0.4071498109722219
mp-1212306,Ho4CdPt,-0.6141800937499996
mp-1212307,In7Ni3,-0.1303988695000001
mp-1212308,Ho4MgNi,-0.2055799230555551
mp-1212311,Ho3Co2Si3,-0.7551094487499999
mp-1212312,Ho4CdPd,-0.4568547987499999
mp-1212316,Ho3(SbPd2)4,-0.8336532273333338
mp-1212321,Ho4MgRu,-0.2526950755555551
mp-1212322,KGdH2C2SO9,-2.203711322319688
mp-1212337,Ho2Si5Rh3,-0.9732022334999996
mp-1212340,Ho2MnNiO6,-2.836463415311517
mp-1212341,Ho5CoBi2,-0.5474748584375
mp-1212342,Ho4MgCo,-0.1547216263888889
mp-1212343,Li22(Cu3Si2)7,-0.2838907801754382
mp-1212349,In2(SeO4)3,-1.3838118274724271
mp-1212353,Ho6Al43Mo4,-0.3155688357547174
mp-1212354,Ho3(Si3Pd10)2,-0.8335159865517233
mp-1212357,Ho2(Al3Ir)3,-0.8628782139285717
mp-1212359,Ho2(Al3Pd)3,-0.685951293928572
mp-1212360,Ho6Ti4Al43,-0.3380041734905657
mp-1212362,Ho2Si3Pd,-0.8837738370833333
mp-1212365,Li12Ge7,-0.3219329973026315
mp-1212366,Ho(ZnP)3,-0.6042388136734697
mp-1212368,Ho2Be2GeO7,-3.299364828229168
mp-1212373,Ho2OsC2,-0.3970543585000001
mp-1212377,Ho6Ta4Al43,-0.3050445453773586
mp-1212379,Ho2Sc3Si4,-0.8318966325
mp-1212381,Ho2(MoO4)3,-2.7272788820588234
mp-1212385,Ho2(Ga3Ru)3,-0.5346516200000012
mp-1212386,Ho3(P3Pd10)2,-0.7341304386699505
mp-1212388,Ho(Al5Ru)2,-0.5144673834615383
mp-1212389,Ho(Fe2Ge)2,-0.293995892857142
mp-1212391,Ho2B6Rh,-0.6466159891666661
mp-1212392,Ho2AlGe3,-0.6306874204166663
mp-1212405,Ho6Nb4Al43,-0.3307181654716984
mp-1212406,Ho2(Ga3Rh)3,-0.710080513928571
mp-1212407,HfBi,-0.1749281191666666
mp-1212409,HfAsRu,-0.7841782522222237
mp-1212410,LaInNi5,-0.2926642846428566
mp-1212412,Ho6Al43V4,-0.3112185845283021
mp-1212416,HfCrP,-0.8662150186904766
mp-1212420,Ho2(Ga3Ir)3,-0.6659663589285714
mp-1212423,Ho12In3Fe2,-0.2158680264705887
mp-1212428,HfFeAs,-0.7055821025000005
mp-1212429,Ho12Co5Bi,-0.2922046375000009
mp-1212432,K4Te8O23,-1.6421640687357142
mp-1212434,HfTe7SeCl6,-0.9529462344602504
mp-1212436,Ho3Sc2Al3O12,-3.8358773445
mp-1212441,Hf3Ni3Sb4,-0.5666735549999998
mp-1212442,Hf5Si3N,-1.0843609374866676
mp-1212443,Hf6Be15Pd8,-0.4823802881034478
mp-1212445,Hf2Si4Mo3,-0.6698424908333338
mp-1212448,Hf9Re4O3,-1.3301019464843726
mp-1212449,Gd2Be2SiO7,-3.5532093240625016
mp-1212450,Hf6Be15Ni8,-0.4134889225862067
mp-1212451,Hf6Be15Co8,-0.3368969718965521
mp-1212454,La3Lu2(GaO4)3,-3.422100383375001
mp-1212455,Hf6Be15Cu8,-0.2538313049999997
mp-1212456,GdGa3Os,-0.4847269186666665
mp-1212457,Li3Gd3(TeO6)2,-2.7623929135
mp-1212463,Hf7Au10,-0.5522165811764699
mp-1212464,Hf6Al16Ir7,-0.8190513810344829
mp-1212466,Hf5CoP3,-1.0690888536904768
mp-1212476,Li3Gd(NO3)6,-1.5239814057778571
mp-1212479,Hf9Mo4Se,-0.2497504315959824
mp-1212482,Hf2Cr4Si5,-0.5456847349999999
mp-1212484,Ho2Fe17C3,-0.084890839772727
mp-1212485,Hf6CCl14,-2.137853647173334
mp-1212488,GdCrGeO5,-2.812989409218752
mp-1212490,Ho(Al5Re)2,-0.3514975148717944
mp-1212499,Hf5Ir3,-0.824100724166667
mp-1212503,Ho5NiBi2,-0.5686354893749996
mp-1212505,K2Sr(Ge4O9)2,-2.261808641097702
mp-1212509,Ho12Ni6Pb,-0.3862703984210529
mp-1212517,HfBr4,-1.3880354220000002
mp-1212518,GdTiClO3,-3.5162942520016656
mp-1212521,GdSBr,-2.223374311041665
mp-1212549,NaV4Bi13O30,-1.93698382296875
mp-1212567,Hf2Be17,-0.2282005359649129
mp-1212572,GdWC2,-0.2415744931249985
mp-1212579,H3C3N5,-0.3182197867281812
mp-1212594,In3Te3Br,-0.4416917303571429
mp-1212595,Ho2Hf2(MoO4)7,-2.656838265
mp-1212597,Hf2InCu2,-0.2214853284999996
mp-1212599,K2BaNb2S11,-1.4112987755703124
mp-1212604,GdAl3Ni2,-0.6443728544444451
mp-1212614,H12PbN3Cl5,-0.966560737589524
mp-1212617,GdTl(MoO4)2,-2.43065144625
mp-1212628,Ho3Ga15Ru4,-0.5144145875000006
mp-1212634,ErTeAs,-1.146079464166667
mp-1212638,Gd2Cu(GeO3)4,-2.502687914999999
mp-1212640,GdInO3,-3.8349656147499993
mp-1212655,Gd2MnNiO6,-2.7742474443115173
mp-1212656,Hf3(Mn2Si3)2,-0.6485258911438992
mp-1212657,Gd2Cu(GeO4)2,-2.690458861538462
mp-1212660,GaCuBr4,-0.675855320833333
mp-1212662,GaClO,-1.9782765340033333
mp-1212666,Ga5CuSe8,-0.5520728077678575
mp-1212669,Gd5B3O13,-3.4071507433928576
mp-1212671,Ga5CuTe8,-0.3065778885714282
mp-1212672,Gd3BBr3,-1.2968635186904771