material_id,pretty_formula,formation_energy_per_atom
mp-1216398,VCrB2,-0.6866460441666664
mp-1216399,Zn2GaP3H8(NO6)2,-1.883225753283368
mp-1216412,Zn11Cu(MoO4)12,-1.956356230069444
mp-1216417,UCoNiGe2,-0.3686434000000005
mp-1216418,V8GaGeS16,-1.2861603403846162
mp-1216420,VCrGeC,-0.274447587500001
mp-1216422,Y4Fe28BC,-0.0895838531372553
mp-1216423,VAg3HgO4,-1.1597844261111117
mp-1216431,VCr(CuO2)2,-1.8256841775
mp-1216436,V6GaGe,-0.2550154337499997
mp-1216439,V6CoNi,-0.1769151781250002
mp-1216440,V6GaSi,-0.3187222918749999
mp-1216441,Zr14Cu51,-0.1631338004615381
mp-1216443,V6FeNi,-0.1719024175000001
mp-1216445,V9Cr3B8,-0.703693547333333
mp-1216448,YH18(BrO6)3,-1.2690311768998337
mp-1216453,V6SiGe,-0.4023917868750004
mp-1216456,VCu12As3S16,-0.6222853681250013
mp-1216457,V6CoRh,-0.2541760531249988
mp-1216459,VGa2FeCo4,-0.2684109612499998
mp-1216467,Yb20Zn30Ge31,-0.460343504855967
mp-1216475,V3ReB4,-0.7150767035416656
mp-1216481,V3Cr3Si2,-0.4584312725000004
mp-1216485,V4ZnCu3O14,-1.903323441477272
mp-1216490,V9GaGe2,-0.2798757895833326
mp-1216493,V3Cr3B8,-0.6650684754761907
mp-1216500,Zr2Mn12GaSn11,-0.1197724929177719
mp-1216511,V9GaSiGe,-0.3220689029166668
mp-1216513,V9Ga4Fe3,-0.2253128537500002
mp-1216514,V4Cd3(PO4)6,-2.5564258789575285
mp-1216515,VCu13Sn(AsS8)2,-0.6436755625757578
mp-1216516,V3Zn2GaO11,-2.211342339044118
mp-1216524,Tm2Ga3Cu,-0.586695706111111
mp-1216529,Tm2SbTe,-1.1695330129166672
mp-1216530,TlPb,-0.0043205250000002
mp-1216543,Tl3V(SeS)2,-0.7440793938671879
mp-1216546,Tm2C,-0.34278251888889
mp-1216552,USi2RuRh,-0.757427358000001
mp-1216554,Tm2TeS2,-2.1064621225833333
mp-1216557,TmAlGa,-0.5432191477777776
mp-1216565,TmBeCu4,-0.1955348863888891
mp-1216566,TlPdPb,-0.1691952633333334
mp-1216573,TmAlNi4,-0.53885165888889
mp-1216579,Tl2BiSbTe4,-0.2695958481250002
mp-1216581,V2FeSi,-0.478375473749999
mp-1216586,TmSc(BO3)2,-3.5088121942499995
mp-1216588,TlInF6,-2.4971203058925
mp-1216599,UCuSi2Ni,-0.456811442
mp-1216602,Tl2Pd9Pb,-0.241380514166666
mp-1216612,TlIn5S8,-0.9088060182142854
mp-1216618,Tm5S7,-2.436996504045139
mp-1216621,TiW,-0.0195942949999992
mp-1216623,TlSbWO6,-1.9340611858333336
mp-1216627,UTaC2,-0.4843059199999988
mp-1216629,TmGaAg,-0.4695876988888893
mp-1216631,TmUTe4,-0.916779235555556
mp-1216633,URu2Rh,-0.4596008774999998
mp-1216635,TiSnIr,-0.5746103566666664
mp-1216639,U2(AlSi)3,-0.2771349006249997
mp-1216640,TiZnGa2,-0.3747174012499998
mp-1216641,TiSnRh,-0.5657519900000002
mp-1216643,V10Si6B,-0.6289480604901966
mp-1216653,UNbC2,-0.4116594875000015
mp-1216654,U2NiSb4,-0.2918672885714284
mp-1216657,U2PS,-1.3541938204241075
mp-1216662,U2AsSe,-0.8687634280859386
mp-1216663,TmGaAu,-0.7794930944444444
mp-1216665,Tm3Ga2Ge3,-0.6859582381249991
mp-1216666,TiNbCr4,-0.0883086949999985
mp-1216667,TiVB4,-0.896403568888888
mp-1216673,U2CS,-0.9188888457812504
mp-1216676,TiP2W,-0.8148698317857148
mp-1216682,TiNi4GeO8,-1.8422899371428567
mp-1216685,TmAl7Fe5,-0.3997355841025635
mp-1216687,TiVH4,-0.435856780746666
mp-1216688,U2AsS,-1.2125328657812506
mp-1216689,TlCr5Te8,-0.2155260921428561
mp-1216692,TiNbB4,-0.8906931755555547
mp-1216693,V2Cr2GaSe8,-0.6271093152884613
mp-1216698,TiSeS,-1.4206829118229165
mp-1216705,V2Cu3NiO6,-1.5920902356249986
mp-1216706,U2PS,-1.355511270424108
mp-1216707,TiNbC2,-0.6656940925000008
mp-1216708,V3Ni2,-0.1885925676666668
mp-1216709,TiNbB2,-0.8102770791666671
mp-1216714,TiNbAlC,-0.6051494774999995
mp-1216715,TiNb3(AlC)2,-0.5655835325000016
mp-1216723,U4B3C5,-0.3597902829166675
mp-1216727,Tl9SnTe6,-0.2989957587499998
mp-1216736,TlP(HO2)2,-1.9702028732264285
mp-1216740,Tm(CuS)3,-1.1295647632440489
mp-1216745,Tm(AlCu)6,-0.3520767364102566
mp-1216746,Tm2InAg,-0.3844054575000002
mp-1216756,Tm2(B2Rh3)3,-0.6439125386274502
mp-1216757,Tm(AlFe)6,-0.3940710202564103
mp-1216758,U2(PdRh)3,-0.6283439924999996
mp-1216765,V2Co9W,-0.1353300187500004
mp-1216770,V2AgP3O11,-2.506030209870448
mp-1216772,V2Co9Mo,-0.1242705545833343
mp-1216775,V10(SiGe)3,-0.460423435937499
mp-1216777,U2As3Se,-0.8095031303906252
mp-1216780,UMnFeSi2,-0.4690027299310344
mp-1216792,V11ReB8,-0.7224703780833337
mp-1216793,UNiP2,-0.7930190259523803
mp-1216797,TiTl2(TeO4)3,-1.7726288663888892
mp-1216800,U4Be51B,-0.0824383780952387
mp-1216804,TlV3Cd4O12,-1.95143436775
mp-1216819,TmUTe6,-0.6957543916666662
mp-1216824,Tl8SnTe6Pb,-0.312613710625
mp-1216825,TiIn,-0.143277284999999
mp-1216828,U2CN,-0.8139105230949983
mp-1216829,V12Ga(GeS12)2,-1.266446921153845
mp-1216830,U2Be25Cu,-0.0648585480357145
mp-1216835,Tl(V3S4)4,-1.3406733927586203
mp-1216838,TiNbBiO6,-2.8566320519444446
mp-1216839,TlCrNiF6,-2.5874032285711106
mp-1216840,U5PS4,-1.5657460001071428
mp-1216843,V(CrS2)2,-1.164790216071429
mp-1216847,Tl2FeCu3Se4,-0.2447653629375004
mp-1216850,TiCuNi,-0.3089606633333339
mp-1216851,V32N3,-0.2818956573468556
mp-1216853,Tm2Si9B36C,-0.202593642743056
mp-1216856,TiMn2VAs4,-0.4308063424137938
mp-1216857,U4(BRu4)3,-0.3845360881578959
mp-1216859,TiCrSbO6,-2.583036845555556
mp-1216863,TiNb(BiO3)3,-2.442575488303571
mp-1216870,TmTaTiO6,-3.675568972592592
mp-1216876,TiGaNi6,-0.4037787462500004
mp-1216878,U3Ni3(SnSb)2,-0.3274134895000003
mp-1216880,TiCrCuSe4,-0.7095235756249991
mp-1216881,U(Al3Fe)3,-0.2711210715384617
mp-1216901,Tm6Ga17Pd5,-0.6646004935714284
mp-1216909,TiNbTlO5,-2.87457945015625
mp-1216911,TmCuPbS3,-1.431716024618056
mp-1216912,Tl(V3S4)4,-1.3486743496551716
mp-1216929,Tm5Co19P12,-0.8941489512367724
mp-1216939,TiTeO3F2,-2.76662966784
mp-1216940,U2Ga10CoNi,-0.327537766785715
mp-1216942,Tm5P12Ir19,-0.7966252013756616
mp-1216943,TiNb(PO4)3,-2.9756759868067224
mp-1216944,TiNb6Tl2O18,-2.900771542685185
mp-1216946,TiMnCr,-0.1901157748850579
mp-1216961,V9InS12,-1.3212996739772729
mp-1216962,V3Bi(PbO4)3,-2.1180067136842107
mp-1216971,TiNb2O7,-3.1775587422083333
mp-1216976,Tl5Sb10As3S22,-0.6351077499687499
mp-1216977,V2FeGe,-0.3016927725
mp-1216979,TiCrAgS4,-1.189569463690476
mp-1216980,U4CuTe12,-0.5083349111764702
mp-1216989,V12Ag5O32,-2.0383405654421765
mp-1216997,V(Cr7S10)2,-1.0592285640714278
mp-1217,KSi,-0.0660934327499997
mp-12170,La2SnS5,-1.942498040078125
mp-1217007,Tm4Co3,-0.2259458864285721
mp-1217009,TiAl2Zn,-0.3880047562499991
mp-1217012,V2GePb5O12,-1.98910633875
mp-1217017,TiAl6Mo,-0.3613804112499998
mp-1217023,TiB2W,-0.7824614516666681
mp-1217024,Ti6PtAu,-0.49695428375
mp-1217028,TiB2Mo,-0.815256994166667
mp-1217035,Tl2Mo2P2O11,-2.245256513287816
mp-1217044,TiAlNi6,-0.47405926375
mp-1217050,U2(InSn)3,-0.0948584099999996
mp-1217052,Ti6P2O,-1.3908718931547628
mp-1217053,U(Fe5Si)2,-0.2257235538461537
mp-1217056,U7V5Ag3O35,-2.875609713075
mp-1217060,Y10Ga3Co7,-0.3483571704166678
mp-1217062,TiNb2O7,-3.176409081541665
mp-1217065,Ti8Cu3Ni,-0.161083785833334
mp-1217067,Ti2ReOs,-0.56724677375
mp-1217070,Ti2RePt,-0.7327916287500003
mp-1217074,Ti2HC,-0.7164995071549987
mp-1217076,Ti2AlGe3,-0.4657398216666664
mp-1217077,Ti2Si6W,-0.5005637533333321
mp-1217079,Ti2Si6Mo,-0.54302507111111
mp-1217087,Ti2AlCr,-0.2515528699999994
mp-1217093,Ti2NbAl,-0.2763530624999992
mp-1217094,Ti3Nb3Sn2,-0.2398170687499998
mp-1217095,Ti3B4Mo,-0.8312283841666659
mp-1217098,Ti4CuAg,-0.0876368088888893
mp-1217099,Ti8Al4CN3,-1.1216350710712495
mp-12171,K6MgO4,-1.59201401330303
mp-1217102,Ti3Nb(AlC)2,-0.6626416724999995
mp-1217103,Ti4C3N,-1.1072726677975009
mp-1217106,Ti2C,-0.63467942
mp-1217107,Ti4CN3,-1.6552404371424991
mp-1217118,Ti3(TeSe)2,-0.9565661992410708
mp-1217119,Ti2MnNiO6,-2.744364316311517
mp-1217120,Ti2FeNiSb2,-0.5808108666666657
mp-1217124,Ti2Co3Sn2,-0.4109309349999991
mp-1217125,Ti4GaC3,-0.8070744574999997
mp-1217127,Ti2MnFeO6,-2.898637365811518
mp-1217133,Ti5CN4,-1.7023892079519982
mp-1217136,Ti8Al15Rh7,-0.7779785213333327
mp-1217138,Ti3V2Si3,-0.7519657556250001
mp-1217139,Ti3Mn(CuS4)2,-1.3756846424753704
mp-1217140,Ti3(SeS2)2,-1.515935043020833
mp-1217141,Ti4Al2CN,-0.9813464065474982
mp-1217142,Ti2CN,-1.3926748730950005
mp-1217143,Ti3AgS6,-1.547198630208333
mp-1217144,Ti4AlGe7,-0.4501747075000004
mp-1217147,Tl(CoSb3)16,-0.1768536816923074
mp-1217148,Ti3VS6,-1.7062546698750012
mp-1217159,V2SiPb5O12,-2.162148398250001
mp-1217162,Ti2Co3Si,-0.6049627116666668
mp-1217165,Ti2V2GaS8,-1.4849235673076937
mp-1217178,Ti3FeS6,-1.5855730898749996
mp-1217180,Ti2Te3,-0.7230057589999994
mp-1217181,TlMo2P3O13,-2.402111517340224
mp-1217182,Tl5Re6Se8Cl7,-0.8603919990988467
mp-1217185,Ti3CoS6,-1.5895272133750005
mp-1217193,Ti3Fe5P4,-0.9140207211904764
mp-1217197,Ti3AlNi12,-0.4733701693750003
mp-1217201,Ti4Mn5V3,-0.2328062415229889
mp-1217205,Ti5CuS10,-1.6246103450781255
mp-1217210,Ti2Te3,-0.7165055909999992
mp-1217211,U3SiPt5,-0.6718231588888889
mp-1217217,Ti3Bi6WO18,-2.3660116500892863
mp-1217219,Ti2Sb2Pb4O13,-2.273848926488095
mp-1217232,U6Cu3Ni3Sb8,-0.3183739825000004
mp-1217238,TiBi8W(BrO8)2,-1.9029004778571428
mp-1217240,U3(PS4)4,-1.1161230460559015
mp-1217241,Ti5InS8,-1.6779942775
mp-1217247,Ti4CoNi,-0.291977547499999
mp-1217250,Ti10(GaSb)3,-0.4748846259374986
mp-1217253,Ti10CrSb5,-0.4422384740624991
mp-1217259,Th2SbNO,-2.420604153726
mp-1217263,TePdSe,-0.3094701907812496
mp-1217265,ThUS2,-1.9059609115625005
mp-1217268,Tm2PbS4,-2.011275360238096
mp-1217269,TeSe2,-0.0049307548958328
mp-1217271,Th2PNO,-2.5370669084402864
mp-1217273,ThAl2Ni3,-0.590141908333333
mp-1217276,Th2Si3Os,-0.7138074791666659
mp-1217278,Th2Si3Pt,-0.9828327591666656
mp-1217279,Th2Si3Ir,-0.9246595958333318
mp-1217281,Th2AsNO,-2.497826602725999
mp-1217285,TiAl4Ni15,-0.4428158844999998
mp-1217290,Th4AlGe,-0.3996443550000007
mp-1217291,TePb2Se,-0.4760230130859373
mp-1217292,Ti3TePb4O13,-2.4060567369642856
mp-1217294,Th2CuSi3,-0.6950017624999999
mp-1217295,Th2Si3Ru,-0.782814225833332
mp-1217296,Th2Si3Rh,-0.9256651108333336
mp-1217298,Th5C,-0.1123794533333336
mp-1217299,Th2MnSi3,-0.6116500574425281
mp-1217302,Th2CoSi3,-0.7797517099999993
mp-1217306,Th2Si3Ni,-0.7986984241666661
mp-1217315,ThUBe26,-0.1053322489285721
mp-1217321,Th2FeSi3,-0.6722620441666661
mp-1217322,TeSe,-0.0068181111718749
mp-1217323,ThUC2,-0.2570193649999996
mp-1217332,Th2CN,-1.0397263205950011
mp-1217338,Ti2Cr4(CuSe4)3,-0.6347019791964282
mp-1217348,TiNbBi5WO15,-2.2487552988586943
mp-1217354,ThUSb4,-0.483561663333333
mp-1217357,Te8Ir3,-0.2550378999999997
mp-1217363,TcRu,-0.0590298400000008
mp-1217366,Ti2Nb2Ni2C,-0.4353453899999989
mp-1217372,ThU(MnSi)4,-0.5227711928620679
mp-1217377,Zn15Te5As2P8(Pb3O14)5,-2.028372592791926
mp-1217378,TePb3(ClO2)2,-1.605135028152
mp-1217379,Th5C4,-0.2598239100000007
mp-1217380,ThV2PbO8,-2.7945907275
mp-1217388,Th7S12,-2.408295633552632
mp-1217390,Th2Fe17C,-0.0373440784999985
mp-1217391,Ti13Al9Co8,-0.5202444763333337
mp-1217392,Tl5Re6S8Cl7,-1.1439172660700008
mp-1217395,Th4C3,-0.26710809857143
mp-12174,HfNi3,-0.5381777505000003
mp-1217402,TbZnSi,-0.6389675966666667
mp-1217409,TcIr,-0.218510075000001
mp-1217410,Ti27CuP16,-1.1085855642532465
mp-1217418,Te4Mo2Ru,-0.2866230149999995
mp-1217422,TcRh,-0.1167931699999993
mp-1217429,Te16Rh9,-0.4035417175999998
mp-1217432,V20Ga(GeS10)4,-1.2540096202307696
mp-1217433,TbUTe4,-0.9534322899999996
mp-1217435,TbY2Ni6(B2C)3,-0.5068662814814817
mp-1217437,TePtPb,-0.345710201666666
mp-1217440,Te16(Mo3Ru)3,-0.282647182857143
mp-1217442,TbYNi2,-0.4339724533333333
mp-1217446,Ti2Tl3P5S18,-0.946944084075256
mp-1217447,Te10Rh7,-0.3948936052941175
mp-1217448,Th4P6PbO24,-3.318906604897959
mp-1217453,TePb3(BrO2)2,-1.4235208335000002
mp-1217454,Th2Mn17C2,-0.0634213287684728
mp-1217458,TbUTe6,-0.7303649662499998
mp-1217463,Th2(InSn)3,-0.4063812762500003
mp-1217470,TbHoAl4,-0.5156084883333332
mp-1217473,TbHoFe4,-0.077496259999999
mp-1217475,TbThRe4,-0.1368780150000006
mp-1217476,TbSi2IrRh,-1.117948378
mp-1217478,TbSi2RuRh,-1.0423154420000005
mp-1217482,TbHoCo4,-0.1760881816666675
mp-1217483,TlMo3Br7,-0.7247140673863641
mp-1217492,TbNdCo4,-0.1029969883333331
mp-1217494,U11Se20,-1.1673800315120966
mp-1217496,ThScFe6,-0.1415413106250002
mp-12175,Y5Pt4,-1.1415232157407411
mp-1217508,TbSc3(BO3)4,-3.459188064666666
mp-1217510,U6P13Rh20,-0.8490441715750919
mp-1217512,TbSi4B18C,-0.208799724166667
mp-1217522,TbTaTiO6,-3.669066437222221
mp-1217524,Th2(Mo3S4)5,-1.232372504797297
mp-1217528,TbGaAg,-0.4842210461111105
mp-1217530,TbGaAu,-0.7903979649999998
mp-1217532,Te4Mo(OF4)5,-2.258301175835
mp-1217533,TbUTe3,-1.016289941
mp-1217539,TbGd(PO4)2,-3.4888232847619043
mp-1217549,TbInGe2O7,-2.566404491250001
mp-1217552,Ti8Cr3(B4Ru9)2,-0.5252372812612607
mp-1217556,TbErTe2,-1.256024515
mp-1217570,TbCu2Ni3,-0.2868978400000005
mp-1217571,TbGd3(PO4)4,-3.4781205339285712
mp-1217572,TbDy3Al8,-0.5287766674999995
mp-1217575,Th14Ag51,-0.1483975444615387
mp-1217578,U12Ge3Te20,-0.7308069622857138
mp-1217580,Th14Au51,-0.6219282786153844
mp-1217581,TbAlNi4,-0.5215135000000005
mp-1217589,TbCuNi4,-0.3087037066666672
mp-1217591,YbCd6,-0.2183099451190476
mp-1217594,V4(PO5)3,-2.613882158915044
mp-1217600,Ti17CuP12,-1.121006365178571
mp-1217605,TbCuPbS3,-1.4304707357291673
mp-1217606,TbH18(BrO6)3,-1.2715136630664994
mp-1217615,TbAgSn2,-0.4610363708333329
mp-1217620,Tb4Si3Ge,-0.8324801156249988
mp-1217627,Tb4CuPt3,-1.0324440874999992
mp-1217628,Ti12Mn5(PO4)18,-2.9567124204426305
mp-1217634,Tb3Sc2S7,-2.402358025989584
mp-1217635,Tb3SOF5,-4.099890886532501
mp-1217640,UNi3P2,-0.732443265634921
mp-1217642,Tb6Mg(GeS7)2,-1.97474713161232
mp-1217656,TbU3(CoGe)8,-0.4946297224999995
mp-1217661,Tb5Si2BO13,-3.725209218313492
mp-1217664,Tb5Co19P12,-0.8750341554960323
mp-1217665,Tb5Te9,-1.2767900887499997
mp-1217668,Tl6V7P5O31,-2.3445806629919823
mp-1217670,Tb2ZnAg,-0.3378774995833331
mp-1217672,Tb2ZnCu,-0.2862213662499999
mp-1217674,Tb2SiGe,-0.84406704375
mp-1217675,Tb2ZnSb4,-0.6630927764285717
mp-1217676,Tb8Se15,-1.6582342057314314
mp-1217677,Tb2CuAg,-0.2758506358333337
mp-1217684,Tb2TeS2,-2.12640602325
mp-1217691,Tb3DyAl8,-0.5296273316666665
mp-1217693,Tb2Co3Ni,-0.2479041974999999
mp-1217699,Tb2InAg,-0.3905385933333329
mp-12177,Te2O5,-1.4287927501785709
mp-1217701,Tb2CuPt,-0.7901987112500004
mp-1217703,Tb3Al3NiPd2,-0.7940513477777773
mp-1217710,Tb2FeCo3,-0.1632483841666664
mp-1217712,Tb2NiSb4,-0.7452669471428572
mp-1217713,Tb2MnSbO7,-2.962128857215016
mp-1217714,Tb2(B2Rh3)3,-0.6502609670588229
mp-1217722,TbGd2Ga5O12,-2.957577695
mp-1217727,Tb2MnCrO6,-3.1154021653115165
mp-1217731,Tb2CrSbO7,-3.0558981103409093
mp-1217733,Tb2Ga3Co14,-0.2067361047368419
mp-1217739,Tb4Si7,-0.6054734927272724
mp-1217740,Th14Cu51,-0.1671807729230767
mp-1217743,Tb4Co3,-0.1499454111904759
mp-1217749,Tb9Al5S21,-2.119189015446429
mp-1217758,SrSmB12,-0.4609916185714279
mp-1217771,Tb9Al5Se21,-1.4966027896919645
mp-1217775,Ta2Co3Si,-0.4978269650000004
mp-1217777,SrZnIn3,-0.2958593043333334
mp-1217778,Tb3Ni7P5,-0.9820948316904766
mp-1217780,Ta2Co3Ge,-0.3387361541666654
mp-1217787,SrSmMn2O6,-2.751626716373033
mp-1217789,SrSmGa3O7,-2.8440461440625007
mp-12178,KCr5S8,-1.181192887714286
mp-1217800,Ta12MoO33,-3.255862106548912
mp-1217809,Ta12Ga3(TeSe2)8,-0.6365947250641029
mp-1217811,TaW,-0.0675367700000002
mp-1217816,TaVH4,-0.2490838440799988
mp-1217818,TaVB4,-0.693789897222222
mp-1217825,TaTl3(SeS)2,-0.807753857617187
mp-1217828,SrTi3Al8O19,-3.4752279870295686
mp-1217829,TaTiSe4,-0.9597569615625
mp-1217830,TaTlWO6,-2.519373886944444
mp-1217833,TaTl6VS8,-0.9761986346875
mp-1217839,Tb(AlCu)6,-0.3594016423076924
mp-1217840,Tb(AlFe)6,-0.383880969230768
mp-1217842,TaV(Cu3Se4)2,-0.5000017811718749
mp-1217846,Ta20Pd9S50,-1.3155235133702528
mp-1217847,SrTi4Bi4O15,-2.7668004379340267
mp-1217848,Tb(CuS)3,-1.1380725727678571
mp-1217849,TaV(Cu3S4)2,-0.9437608340625
mp-1217850,TaVCo,-0.2173276116666661
mp-1217858,TaTiTlO5,-3.0039948701562498
mp-1217863,Tb(InCu)6,-0.1288570530769233
mp-1217864,TaVNi,-0.2133494066666657
mp-1217874,Tb14Ag51,-0.2469872549230768
mp-1217876,Tb20In40Rh19,-0.6040470944303793
mp-1217877,Tb14(P8Ir11)3,-0.984049930080482
mp-1217878,Tb14Au51,-0.6345386239999995
mp-1217891,TaTiAl6,-0.3593832424999998
mp-1217892,TaNb,0.0076089299999999
mp-1217893,TaNbAl6,-0.3754824699999997
mp-1217894,TaRe,-0.1978579675000009
mp-1217895,TaMo,-0.1071801850000007
mp-1217898,TaTiB4,-0.8829180022222213
mp-1217901,TaNbW,-0.0428473999999994
mp-1217902,TaNbMo,-0.0789002266666661
mp-1217904,TaTiC2,-0.7504117150000003
mp-1217909,TaTiAlC,-0.6222004774999998
mp-1217915,TaS2,-1.4877865554166665
mp-1217921,TaGaNi6,-0.3661364412500001
mp-1217923,TaNi6Mo,-0.2301186250000002
mp-1217925,TaNb(Cu3S4)2,-0.9393005303125
mp-1217928,TaNb(Cu3Se4)2,-0.513693548671875
mp-1217942,TaNbTe4,-0.4065035027777771
mp-1217943,TaNb3V4O20,-2.76742975875
mp-1217952,Ta12Co3Pt3Se32,-0.7200979690000008
mp-1217955,Ta11(Co52B15)2,-0.2887456476551726
mp-1217963,SrPrAlO4,-3.516635915238095
mp-1217964,TaB2Mo3C2,-0.4102989458333326
mp-1217965,TaB2Mo,-0.6632608741666655
mp-1217967,SrPPt,-1.0930915117460325
mp-1217974,TaB4W3,-0.4763727004166664
mp-1217975,Ta3TiB4,-0.8369499666666655
mp-1217980,TaBe4Mo,-0.2635396208333335
mp-1217981,SrNdNiO4,-2.58417806595238
mp-1217983,TaCo6Mo,-0.1425868324999992
mp-1217985,Ta2MnV3,-0.2291510432758615
mp-1217989,Ta4CoNi,-0.2439802224999994
mp-1217995,TaAlZn,-0.243859233333333
mp-1217996,TaCu3Se3S,-0.6253089762695323
mp-1217997,Ta3AlB8,-0.4950060947222224
mp-12180,NaS2,-1.027069842083333
mp-1218003,TaAl2Ni9,-0.4379696908333343
mp-1218004,Ta2V3Ge,-0.2490854433333318
mp-1218008,Ta2Cr3Si,-0.3792280133333333
mp-1218014,SrPrAl3O7,-3.5606907137847226
mp-1218015,TaCoNi2,-0.3311868912499998
mp-1218016,SrSmAl3O7,-3.569961235729167
mp-1218017,Ta5S8,-1.457357895
mp-1218022,TaCrCo,-0.1756570174999995
mp-1218028,Ta4MoS10,-1.459142070083334
mp-1218031,SrPb3S4,-1.2612672186458331
mp-1218032,TaCu3(SeS)2,-0.7344757138671882
mp-1218033,Ta3MoS8,-1.443921320416667
mp-1218041,TaAlNi6,-0.4240023200000005
mp-1218044,Ta3Ru2,-0.2838388680000008
mp-1218047,Ta4MoSe10,-0.7818479708958336
mp-1218050,SrPrGa3O7,-2.837774685451389
mp-1218053,Ta3(CuS3)2,-1.2615431512500004
mp-1218055,Ta7S12,-1.4853056351315792
mp-1218056,Ta4AgS8,-1.3776673683333331
mp-1218058,SrPrMgRuO6,-2.77298418275
mp-1218059,SrPrMn2O6,-2.740859159039701
mp-1218069,SrPr(FeO3)2,-2.6016691789166657
mp-1218072,Ta4FeCoO12,-2.995278733611111
mp-1218075,SrCaZnSi2O7,-3.1775614800347234
mp-1218080,Ta4Ga(Te3Se)2,-0.4669232965144232
mp-1218083,Ta6TeSe2,-0.3726592932986108
mp-1218087,Ta3Mn8Al,-0.2395392089367819
mp-1218092,Ta2NbTeI7,-0.4800396495454542
mp-1218094,Ta6V3Co3C2,-0.3906587192857143
mp-1218097,Ta4MoSe10,-0.7763717448958336
mp-1218099,Ta6TiTl2O18,-3.139812457129629
mp-12181,BaSnS2,-1.6267950359375
mp-1218100,Ta3NbV4O20,-2.855052349107144
mp-1218102,SrNdMn2O6,-2.740022389539701
mp-1218104,SrPr3(FeO3)4,-2.7359158103333323
mp-1218110,Ta2InS4,-1.3482248332142857
mp-1218112,Ta6V3Ni3C2,-0.394439496785714
mp-1218117,Ta3(InS3)2,-1.2913279107954556
mp-1218118,SrSm3Mn4O12,-2.878365815206368
mp-1218119,Ta6Mn(CS2)3,-1.1246415624003223
mp-1218120,Ta3C2,-0.5869655040000012
mp-1218128,SrNdGa3O7,-2.840523012118056
mp-1218129,SrNdMgRuO6,-2.78807850125
mp-1218131,TaBi(P2O7)2,-2.717624059339286
mp-1218132,Ta3Sb(PO4)6,-2.878024926071429
mp-1218137,SrNdCrO4,-3.130063973095239
mp-1218140,TaAl4Ni15,-0.4308915060000003
mp-1218155,SrLaNiO4,-2.6238092766666665
mp-1218172,SrNdAl3O7,-3.56447128795139
mp-1218177,Ta3Os2,-0.3289616690000002
mp-1218178,SrLaNiO4,-2.617475650238096
mp-1218179,TaCo,-0.2476569198076926
mp-1218188,SrLaB12,-0.508073310833334
mp-1218189,SrLaCrO4,-3.185370292738096
mp-1218192,Ta3(InSe3)2,-0.6785670576420454
mp-1218195,SrNd4Si3O13,-3.680414916329365
mp-1218197,SrLaGa3O7,-2.86929929170139
mp-1218200,SrNd2BeO5,-3.478987895601852
mp-1218203,SrLaMgTaO6,-3.54390220025
mp-1218206,SrMnO3,-2.499063957206367
mp-1218208,SrLaMgRuO6,-2.78789036725
mp-1218213,SrLaMnNbO6,-3.213929301228183
mp-1218218,TaFe,-0.1911240488461531
mp-1218220,SrLaAl3O7,-3.59031935295139
mp-1218223,SrLaCuS3,-2.0482518280902777
mp-1218227,SrLaCuSe3,-1.5751442926996528
mp-1218230,SrInAu5,-0.4467637780952382
mp-1218233,Ta6Mn2FeO18,-3.082135593101123
mp-1218236,SrIn3Au,-0.4191979713333335
mp-1218237,SrLa(FeO3)2,-2.637730367916665
mp-1218239,SrCa5Mn4(GaO8)2,-2.655470314075978
mp-1218249,SrLa4Si3O13,-3.7356226927579375
mp-1218255,Ta2Ti2Ni2C,-0.4801305078571423