material_id,pretty_formula,formation_energy_per_atom
mp-1187516,YbSiO3,-3.4408393070833343
mp-1187520,YbSmAg2,-0.3694685491666662
mp-1187521,YbYCd2,-0.3786589125000001
mp-1187522,YbSmCd2,-0.3786433200000001
mp-1187523,Th2SbTe,-0.9936287787500008
mp-1187524,TbGdIr2,-0.7735193149999997
mp-1187531,TiZn3,-0.1943971549999998
mp-1187537,YbTmPd2,-0.9043579674999992
mp-1187563,YbDyPt2,-1.1827074091666674
mp-1187567,TmRh3,-0.5824617733333319
mp-1187571,YbHoPt2,-1.189153314166666
mp-1187573,YbMg,-0.0594821949999999
mp-1187575,Tm2GaRu,-0.5058019916666678
mp-1187579,TmMg3,-0.0401118383333334
mp-1187585,Tm2RuAu,-0.6497799691666666
mp-1187586,Tm2AlRu,-0.4118933166666672
mp-1187587,Tm2ZnAu,-0.626166577916667
mp-1187588,Tm2AgAu,-0.6194536700000004
mp-1187590,TmMgPd2,-0.850258979166667
mp-1187599,Tm2ZnPd,-0.6449241679166673
mp-1187606,TmLuCu2,-0.292125420833333
mp-1187609,YbDyZn2,-0.3390723366666668
mp-1187610,TmMg3,-0.0475190958333335
mp-1187611,TmLuAg2,-0.3446092099999998
mp-1187613,YbDyCd2,-0.3666472041666666
mp-1187614,YbLuHg2,-0.5494744516666663
mp-1187615,YbHoCd2,-0.3632114441666667
mp-1187616,YbHoHg2,-0.5662656566666668
mp-1187617,YbNdMg2,-0.0849248733333332
mp-1187620,YbNdPt2,-1.107808116666667
mp-1187622,YbCeRh2,-0.7158680779166664
mp-1187627,YbNdAu2,-0.8849205816666661
mp-1187628,TmZrCo2,-0.2613862608333335
mp-1187630,YbHoZn2,-0.3370204541666668
mp-1187633,YbMg,-0.0554195524999998
mp-1187635,Tm3Al,-0.1985242612500011
mp-1187639,Tm2PdRh,-0.9609995916666668
mp-1187646,YbHoPd2,-0.894266399166666
mp-1187647,Tm3Sn,-0.3817036475000002
mp-1187649,Tm3Sn,-0.3746425937500008
mp-1187650,Tm2ZnIn,-0.3798144829166672
mp-1187653,YbCd3,-0.3091207491666665
mp-1187656,YbCeAu2,-0.7980056129166666
mp-1187670,TmScZn2,-0.3618202495833333
mp-1187676,TmMg2,-0.0508242866666665
mp-1187686,TmLu3,0.0020239354166671
mp-1187694,V2OsW,-0.2521128049999994
mp-1187695,V3Cr,-0.0296859849999986
mp-1187696,VCr3,-0.0544977724999995
mp-1187698,VZnCo2,-0.15654894625
mp-1187699,Tm3In,-0.2503358824999999
mp-1187701,Y2AgHg,-0.4261783899999996
mp-1187702,VW3,-0.0869654175
mp-1187704,Y2ZnAg,-0.34336917125
mp-1187706,Y2CdHg,-0.4314131691666665
mp-1187707,Y2AlCd,-0.3896150066666664
mp-1187708,Y2AlAg,-0.37382487
mp-1187710,Y2MgCd,-0.2300199325000003
mp-1187711,Y2GaAg,-0.4899883150000006
mp-1187713,VGaOs2,-0.2219211825000009
mp-1187717,Y,0.0065364266666669
mp-1187720,Y2AgAu,-0.5995033024999996
mp-1187722,Y2TlHg,-0.447163751666666
mp-1187725,Y2TlZn,-0.3655040329166663
mp-1187726,ThInRu2,-0.3085393475
mp-1187738,VSnRu2,-0.2176519425000007
mp-1187739,Y,0.0
mp-1187751,Y2PdRh,-0.8711486216666664
mp-1187768,Y2ZnGa,-0.507836280416667
mp-1187770,Y2TlIn,-0.4310761366666664
mp-1187773,VH6(OF)3,-1.97065414358
mp-1187789,Y3Er,0.00674392125
mp-1187790,Tl,0.0024741131034479
mp-1187791,SmMg149,-0.0282481624666663
mp-1187792,Tl2S,-0.5639331099305562
mp-1187798,Y3Ho,0.0072303149999992
mp-1187800,Zn2CuRh,-0.2830206799999999
mp-1187801,Y3Lu,0.0043441074999996
mp-1187813,YbCrTeO6,-2.236307232685186
mp-1187818,YbAg2Pb,-0.3159249408333333
mp-1187823,Tm2InHg,-0.4353476291666664
mp-1187828,YbGdCd2,-0.3769793191666668
mp-1187832,Tl2ZnP4(HO2)8,-2.0194991654272814
mp-1187836,YCdRh2,-0.5574125233333334
mp-1187840,YErCd2,-0.338220380833333
mp-1187844,Zr3Pb,-0.1390580025000005
mp-1187845,YHoHg2,-0.4925550983333333
mp-1187846,YHoIn2,-0.4673942758333336
mp-1187850,YHoMg2,-0.0908672925
mp-1187852,U2Co12P7,-0.6784671909523806
mp-1187853,UReB4,-0.5384181238888898
mp-1187856,YHoIr2,-0.8212624508333324
mp-1187857,YLuHg2,-0.4868119383333336
mp-1187859,YHoRh2,-0.8790878333333323
mp-1187860,YMg2,-0.0911464716666661
mp-1187863,YTmZn2,-0.3605935466666667
mp-1187865,YTmRu2,-0.3452835141666668
mp-1187868,YLuRh2,-0.9271505283333336
mp-1187870,YTmTl2,-0.3335282416666665
mp-1187871,YTmAg2,-0.3363082458333339
mp-1187876,YRh2Pb,-0.5535189608333333
mp-1187877,Yb2AgSb,-0.7362315529166663
mp-1187878,YTmCd2,-0.3360856816666668
mp-1187879,Yb2AgAu,-0.6879801016666667
mp-1187880,YTm3,0.0084039004166669
mp-1187885,Yb2CdGa,-0.4609999458333331
mp-1187887,ThIn,-0.2892522799999995
mp-1187891,Yb2GeAu,-0.7940595983333334
mp-1187892,Yb2H6Ru,-0.7679373772281477
mp-1187894,Yb2CuPd,-0.5624816258333332
mp-1187897,Yb2MgTl,-0.2865449641666666
mp-11879,BaNiSn3,-0.4857595360000005
mp-1187901,Yb2InPb,-0.5237133333333333
mp-1187909,Yb3P,-0.4178288846428568
mp-1187911,ZnGaCo2,-0.1753889387500002
mp-1187917,Yb2TlHg,-0.5637938583333333
mp-1187920,ZnGeRh2,-0.51014177375
mp-1187921,ZnRu2W,-0.1282131912499995
mp-1187922,ZnInRh2,-0.4408274087499997
mp-1187928,Yb2ZnAg,-0.368124590416667
mp-1187929,Yb2ZnIn,-0.4061556170833336
mp-1187933,Yb2TlZn,-0.4034855870833331
mp-1187935,ZnGaNi2,-0.33522682625
mp-1187937,YbAlAg2,-0.293068405833333
mp-1187939,ZnSnRh2,-0.5035528612499993
mp-1187942,YbAgHg2,-0.4035475725000002
mp-1187944,Yb2ZnGe,-0.5622579120833335
mp-1187946,ZnAg3,-0.0211541012500005
mp-1187950,Yb2ZnIr,-0.4302283170833338
mp-1187952,ZnAg3,-0.0238384775000004
mp-1187956,Yb2TlSn,-0.5787249608333331
mp-1187958,Yb2ZnSn,-0.5663773520833333
mp-1187965,Yb2TlIn,-0.4859715283333332
mp-1187969,Zn3Ag,-0.0414082058333333
mp-1187977,Zr2FeOs,-0.3626812899999994
mp-1187984,Zr2FeTc,-0.2790881649999992
mp-1188001,Zr2TcIr,-0.700421884999999
mp-1188002,Zr2TcOs,-0.4842465649999994
mp-1188003,Zr2TcRu,-0.5304081474999993
mp-1188004,Zr2TcRh,-0.6421744199999999
mp-1188009,ZrCdAg2,-0.0974045591666668
mp-1188014,ZrScRu2,-0.6527242312499997
mp-1188020,Zr2TcNi,-0.3891452149999992
mp-1188021,ZrGaRh2,-0.8447537
mp-1188022,ZrMnRh2,-0.5828113099137919
mp-1188031,ZrScCo2,-0.3583022662500008
mp-1188044,SrMg149,-0.026143905222222
mp-1188051,Zr3Bi,-0.1875117862500008
mp-1188052,ZrGaCo2,-0.4419727250000003
mp-1188059,ZrGaRu2,-0.5385600075000001
mp-1188062,Zr3Sc,-0.0304205050000003
mp-1188065,ZrCoH3,-0.4840305341719997
mp-1188066,ZrInCo2,-0.2632412024999997
mp-1188069,Zr2Ni7,-0.4237467061111112
mp-1188076,ThMg149,-0.0206393653777776
mp-1188077,Zr7Cu10,-0.1583145400000004
mp-1188078,TbMg149,-0.0288843101111109
mp-1188079,Zr2InNi2,-0.4992928520000007
mp-1188082,YMg149,-0.0294669987999998
mp-1188085,DySiPt2,-1.1642657949999995
mp-1188088,SmGePd2,-0.8914735845833333
mp-1188089,K2Ni3Se4,-0.6303407772638892
mp-1188091,Ce2Ge5Ir3,-0.7492636059999995
mp-1188093,ZrTl2PbS4,-1.2100803871875003
mp-1188095,SnPbS3,-0.8325110978750004
mp-1188098,CeZn3,-0.2941388981249999
mp-1188099,U2SnPt2,-0.598915851000001
mp-1188109,Ho3In5,-0.4357452368749999
mp-1188115,Cs3ZnBr5,-1.5460641331992335
mp-1188119,PrGaPd2,-0.8484332225000006
mp-1188121,CsP(HO2)2,-2.231272611717808
mp-1188122,Ba2ErInSe5,-1.6139779924131947
mp-1188124,LiAl(PS3)2,-1.0454101167559522
mp-1188125,Sm3Ru,-0.2390886793749995
mp-1188129,ZrPt3,-1.0219263187499994
mp-1188133,Tm2Te3,-1.3704038123333333
mp-1188135,Dy2ReC2,-0.4208276505
mp-1188138,Er2Ge5Ru3,-0.6263476595000007
mp-1188158,YSiPt2,-1.1592391702083331
mp-1188159,Zr5CuBi3,-0.3955225466666666
mp-1188172,Ti5CuSb3,-0.4890508872222214
mp-1188175,Gd2Se3,-1.8933613484062504
mp-1188177,H2,4.440892098500626e-16
mp-1188183,LiSmGe2,-0.6580090737500002
mp-1188187,Li3(ZnSn2)2,-0.2617662333333332
mp-1188194,Ta3B2Ru5,-0.5287119671666659
mp-1188199,Pr(YS2)3,-2.482919526375001
mp-1188200,Nd3Ni,-0.1692504756250006
mp-1188208,Zr5CuSb3,-0.6846179888888891
mp-1188211,U2Si5Ru3,-0.5789967695000016
mp-1188214,Ce2Si5Rh3,-0.9806131014999998
mp-1188220,SiO2,-3.2703337091666658
mp-1188228,KNbF6,-3.4390055000175
mp-1188238,Tb2Ge5Ir3,-0.7293162985000002
mp-1188244,Lu2ReC2,-0.4744993214999994
mp-1188251,Y(Co2B)6,-0.3481987501754388
mp-1188255,LiLaGe2,-0.703116009166667
mp-1188258,Tb3Ge3Ru2,-0.7696958706250001
mp-1188262,TbScS3,-2.3877991318750005
mp-1188271,Er6IrI10,-1.2537210170588238
mp-1188272,Sr5Pb3F,-1.165871009947037
mp-1188274,La5Pb3Se,-0.9557344374826392
mp-1188281,Cs5Te3,-0.9551323762068966
mp-1188283,V8N,-0.3735839347088883
mp-1188285,HoGa3,-0.5241472756249994
mp-1188286,Tb2Ge5Rh3,-0.8024351854999991
mp-1188292,Y5Pb3,-0.5885980814583336
mp-1188299,TmSiPd2,-0.9969779908333328
mp-11883,MgIr2,-0.3043071786111113
mp-1188302,Pr5Pb3,-0.5233566412499995
mp-1188303,Sn4Rh,-0.2892536235000001
mp-1188304,Ba2SmInSe5,-1.617970577783565
mp-1188305,La(Ge3Pt)4,-0.415571955588235
mp-1188308,Er5SbAu2,-0.7657242425000002
mp-1188309,Tb6CoBr10,-1.5729646702941176
mp-1188310,Tm5Ge3,-0.8044400395833335
mp-1188318,SiH8,-0.118105453217778
mp-1188344,CsLiCl2,-2.1929904390294253
mp-1188354,Ta3VSe6,-0.76259387690625
mp-1188355,Zr5Sb3P,-0.8985726815079368
mp-1188357,La5PPb3,-0.8627285309523813
mp-1188364,Tl2Hg3S4,-0.5007883375000001
mp-1188365,PrPd3S4,-1.2420188278125002
mp-1188367,ErZn3,-0.3555970849999998
mp-1188368,Lu3Ge3Ru2,-0.7837008931249994
mp-1188370,La3Sn5,-0.7364090350000003
mp-1188388,Er6NiI10,-1.1878613347058822
mp-1188392,LiInS2,-1.2651160482291668
mp-1188393,Ga3Re,-0.0945507306249995
mp-1188397,Pr2MgIrO6,-2.8809817355833323
mp-1188408,Zr5Sn3B,-0.6765292964814825
mp-1188410,DyGe2Ir,-0.8027853618750003
mp-1188412,Nd4Mg7Ge6,-0.5574557654901962
mp-1188413,Zr3Rh,-0.4226544162500012
mp-1188414,SrTcO3,-2.462015507583333
mp-1188416,Tb3In5,-0.465509091875
mp-1188420,HoAl,-0.4139513443749996
mp-1188427,Dy2Te3,-1.407737433
mp-1188429,Nd2AlGe6,-0.4542048383333323
mp-1188432,Dy4Ga12Pd,-0.6120309041176472
mp-1188434,Y5Tl3,-0.3530100864583341
mp-1188435,Y2Co3Si5,-0.7722425961666666
mp-1188440,LiMnVF6,-3.160507301046872
mp-1188441,TiCu4,-0.0838178924999994
mp-1188445,Zr5SiPb3,-0.4503256061111113
mp-1188451,Nd(P3Os)4,-0.5906140607563013
mp-1188465,Cs3CdBr5,-1.5144428481992338
mp-1188466,Zn2IN,-0.32329682622
mp-1188469,La5Ge3,-0.6974327387499999
mp-1188472,Tb3Ge3Ir2,-0.9203072512499996
mp-1188476,Ho3Pt,-0.7180189525000005
mp-1188482,Tm2InAu2,-0.8087703673333337
mp-1188487,Zr5SnPb3,-0.3549736272222227
mp-1188506,La3Ir,-0.4885682887499998
mp-1188507,Zr5Sn3P,-0.845223420952381
mp-1188509,Pr(FeSb3)4,-0.1968585932352933
mp-1188512,Ga7Pt3,-0.5282149139999994
mp-1188514,Th2C3,-0.2643634845000008
mp-1188518,Pr2Ge5Ir3,-0.7506695260000008
mp-1188531,Zr5CuPb3,-0.2875129083333334
mp-1188534,ScCrC2,-0.3420196200000003
mp-1188535,Y6NiI10,-1.2202057670588238
mp-1188541,NbSiRu,-0.6666789494444458
mp-1188542,Sr(FeSb3)4,-0.1720304215686279
mp-1188547,Tb3Cu3Sb4,-0.7339171595000004
mp-1188549,Ho7PtI12,-1.275795449
mp-1188557,Sm3In5,-0.4988843900000002
mp-1188559,YAgSe2,-1.2129006972135414
mp-1188561,Pr5CuBi3,-0.7051157383333325
mp-1188570,UTcC2,-0.1792681893749996
mp-1188579,BH6N,-0.4439812146791659
mp-1188586,Pr2Ge5Ru3,-0.6390819270000009
mp-1188587,ErWC2,-0.3089288881250009
mp-1188589,Er(Co2B)6,-0.3464546052631581
mp-1188590,TaReSi,-0.5020367161111099
mp-1188596,Er2Si5Ni3,-0.7825693284999993
mp-1188599,Gd3Sb4Au3,-0.844169761500001
mp-1188601,TbB2Ru,-0.5881554504166671
mp-1188603,La(Sb3Ru)4,-0.3603154985294118
mp-1188604,U3Sb4Pt3,-0.6057606964999991
mp-1188606,La5Pb3S,-1.073642138125
mp-1188608,Ce3Sb4Pt3,-1.0721788850000002
mp-1188624,Tb6GaCo2,-0.27465345
mp-1188631,Ti(NbSe2)3,-0.9599077544062504
mp-1188637,Tl5Te2Br,-0.4462936331249998
mp-1188640,Zr5Sn3As,-0.779895907222222
mp-1188648,Y6NiBr10,-1.5895110076470582
mp-1188652,TmAgSe2,-1.1922590715885413
mp-1188655,Ir2S3,-0.7631480658750001
mp-1188656,Nd3Os,-0.1047579393749993
mp-1188660,Ba2LuIrO6,-2.82407351825
mp-1188662,NaAs,-0.3916284175000002
mp-1188666,Sm3Cu3Sb4,-0.7589927670000002
mp-1188677,YbGe2Pt,-0.814489288541667
mp-1188683,NdBS3,-1.6435071000416663
mp-1188684,Tb6RuBr10,-1.5705724647058823
mp-1188687,Ba2P7I,-0.7187444665000001
mp-1188689,Nd(YS2)3,-2.481127566375
mp-1188693,Hf5NiSb3,-0.5253725155555552
mp-1188696,Ho2Al3Ge4,-0.4255022400000001
mp-1188697,Zr5Ir3,-0.7322444893750006
mp-11887,K2U3(TeO7)2,-2.8871507849285725
mp-1188700,InAsH2O5,-1.6968344159433342
mp-1188712,TiGeRu,-0.6735169750000014
mp-1188721,IN4,-0.2063532929039993
mp-1188728,CdI2,-0.5899772244444443
mp-1188730,Pr(HoS2)3,-2.4817919718750003
mp-1188739,ErAl,-0.4120171712499996
mp-1188741,Zr3Co2Si3,-0.8725802168750008
mp-1188749,TbGaPd2,-0.8971275199999997
mp-1188755,NdAlPd2,-0.8830281525000006
mp-1188757,Y3Os,-0.2378793625000002
mp-1188759,Tm4Ga12Pd,-0.5803533031372548
mp-1188762,TaNiP2,-0.6956783724107138
mp-1188765,BaErMn2O5,-2.8090949613867062
mp-1188784,Li2CdSnS4,-1.1935052544791669
mp-1188789,Tb4Ga12Fe,-0.5343491864705875
mp-1188796,Sc4Ge6Ru7,-0.6225893311764708
mp-1188800,Sc3P,-0.8076890165178563
mp-1188811,Lu4Ge6Os7,-0.441089458823529
mp-1188821,Cs3LaI6,-1.5660372273793102
mp-1188825,Dy2Si5Rh3,-0.9818232730000004
mp-1188827,MgCu2SiSe4,-0.5309704634635413
mp-1188829,KTeP2,-0.433982496285715
mp-1188832,NdGaPd2,-0.8598861556249995
mp-1188834,Tb4Ge6Ir7,-0.8678714764705873
mp-1188840,SmScS3,-2.394842980041666
mp-1188841,BaNb2V2O11,-2.875844498359374
mp-1188842,Tb(Co2B)6,-0.3496943594736846
mp-1188845,K2Ag2GeSe4,-0.63594005300463
mp-1188849,LiNdGe2,-0.6680205654166667
mp-1188851,Ho5BiAu2,-0.693385324374999
mp-1188852,CaCo4(CuO4)3,-1.3860317692500004
mp-1188853,CaTcO3,-2.46798874575
mp-1188862,La(HoS2)3,-2.518358523875
mp-1188870,PrZn3,-0.3359014487500005
mp-1188875,Te6IrI3,-0.2027074265000003
mp-1188900,Tb7RuI12,-1.2226632429999995
mp-1188901,La5ZnPb3,-0.5481755300000002
mp-1188905,U3Co3Sb4,-0.4108074874999999
mp-1188913,CsS3,-1.0401433412015084
mp-1188926,Sc3As2,-1.1663234384999996
mp-1188929,Ti(NbS2)3,-1.6213968463750017
mp-1188947,Nd3In5,-0.5102184875000004
mp-1188952,Sm2Ge5Pt3,-0.8096399266666665
mp-1188954,Ba3Ge5,-0.5528530800000002
mp-1188957,Te6IrBr3,-0.2998769754999998
mp-1188970,Cs2CdFe(CN)6,-0.2619167006338792
mp-1188971,Ho2Sn5Rh3,-0.7084374509999997
mp-1188981,Tm3Sb4Au3,-0.7598137619999996
mp-1188982,Tm2Si4Mo3,-0.6931773146296286
mp-1188983,TbZn3,-0.3618862262499998
mp-1188988,Mg2TiB2Ir5,-0.5943453518333328
mp-1188989,Tb3Co2Ge3,-0.7087395268750001
mp-1188990,Pr(P3Os)4,-0.5911425069327725
mp-1188994,Tb3Co,-0.1419132737499993
mp-1189,PrAl2,-0.4905889666666668
mp-1189005,Tb6NiBr10,-1.5826682876470586
mp-1189009,U2Si5Rh3,-0.7007223959999991
mp-1189011,Ta3CrS6,-1.3807701523750011
mp-1189012,Y2Si5Ir3,-0.9837098356666658
mp-1189018,Na5Hf2F13,-3.6697631232735
mp-1189033,Tb3Ru,-0.3063109181250008
mp-1189034,Cs(TeO3)2,-1.654751900603448
mp-1189037,Ce2Co3Si5,-0.7735256814999992
mp-1189045,PrSiPd2,-0.8994660968749999
mp-1189046,Er(BIr)4,-0.5132547920370377
mp-1189051,Ho3GaS6,-2.123215006875
mp-1189054,Sr3(GaAs2)2,-0.8715765594444448
mp-1189056,MgCu2GeS4,-0.9291152463541672
mp-1189057,LuGePd2,-0.9118654187499996
mp-1189064,Ce(ErS2)3,-2.466196894875
mp-1189066,Y5Si3H,-0.7486337072540744
mp-1189069,Nd(ErS2)3,-2.4805506703750013
mp-1189073,ScB2Os,-0.6804444079166663
mp-1189075,Zr5GeSb3,-0.7918946172222215
mp-1189077,HoGePd2,-0.9169903349999996
mp-1189091,K3B6ClO10,-2.7662824527379994
mp-1189097,Pr2Al3Ge4,-0.4736415438888883
mp-1189112,Er6GaNi2,-0.3785486711111111
mp-1189120,Ho3Ir,-0.5998189031249996
mp-1189121,U3CrSb5,-0.2091937155555554
mp-1189125,Lu2Se3,-1.84908382790625
mp-1189131,Ho5Ni2Bi,-0.4615446537499998
mp-1189135,Dy3Cu3Sb4,-0.720803659500001
mp-1189144,Zr2Si4Ni3,-0.7937211861111122
mp-1189145,Dy2Si4Mo3,-0.6743571616666659
mp-1189150,Th(As3Os)4,-0.3705230947058821
mp-1189162,Er4Ge6Ir7,-0.8920903376470586
mp-1189166,TmGePd2,-0.9176037627083328
mp-1189171,Zn2NCl,-0.7132861907850003
mp-1189186,Ta2B2Os,-0.6469026568333319
mp-1189199,Lu3Sb4Au3,-0.7228134444999995
mp-1189200,TmCuS2,-1.695827639270834
mp-1189209,Ho2Te3,-1.3972212970000002
mp-1189212,TaSiRu,-0.6466587316666667
mp-1189214,Y2MnCrO6,-3.1134901724781843
mp-1189225,Nb3RhSe6,-0.7802538119062497
mp-1189227,NaAl(PS3)2,-1.0473587595892866
mp-1189230,Ca3Tl5,-0.3394205956249996
mp-1189235,Sc2Co3Si5,-0.7405197049999999
mp-1189242,Dy3GaS6,-2.1295771993750003
mp-1189243,ErPd3S4,-1.2026002878125004
mp-1189249,HfSiOs,-0.8584068772222224
mp-1189258,Y6PtI10,-1.3186968347058825
mp-1189259,RbSbSe2,-0.6887373274218751
mp-1189260,Nb3CrS6,-1.3988460803750002
mp-1189265,NaCl3,-1.2797250861950002
mp-1189270,LuB2Os,-0.6382662816666658
mp-1189272,CsAlTe3,-0.654889391086207
mp-1189287,Er4Ge6Os7,-0.4289042217647058
mp-1189290,Ce(HoS2)3,-2.465932410375
mp-1189294,La3In4Ge,-0.5926387762500007
mp-1189298,YbB4,-0.4692698209999996
mp-1189305,Sr3(AlAs2)2,-0.9659184133333328
mp-1189307,Nd(HoS2)3,-2.4803020143750003
mp-1189310,Ho3Cu3Sb4,-0.7067635895000002
mp-1189317,Mg2CrB2Ir5,-0.4048783088333323
mp-1189318,Tm2Se3,-1.867738083739583
mp-1189323,Zr5Sb3S,-1.011628762569445
mp-1189329,Y3Co,-0.1429454399999992
mp-1189333,ErB2Os,-0.6070139185416661
mp-1189339,Ba2InSbSe5,-1.1692054240798606
mp-1189341,HfTl2PbSe4,-0.8174149599218756
mp-1189342,Zr5TePb3,-0.3730844272222218
mp-1189350,La5AsPb3,-0.8405368005555552
mp-1189354,Nd(Sb3Ru)4,-0.3225314688235297
mp-1189356,LuAgSe2,-1.1779854451302083
mp-1189367,Nd(P3Ru)4,-0.654348543697478
mp-1189374,Ho6GaNi2,-0.3678019127777779
mp-1189376,Ba2SmGaSe5,-1.6458193405613422
mp-1189379,Tb2Ni7,-0.3873401544444448
mp-1189383,Li2CdGeS4,-1.1872757213541671
mp-1189385,Nb3B2Ru5,-0.447895360166666
mp-1189397,Pr(FeAs3)4,-0.3744441838235283
mp-1189402,Ta2Be17,-0.1823678307894738
mp-1189408,Sr2HoTaO6,-3.621298544583333
mp-1189420,TbGePd,-0.988894915
mp-1189429,LaGaPd2,-0.8768672887499998
mp-1189433,La5Sn3C,-0.6473203055555553
mp-1189434,Nd(LuS2)3,-2.470598406875
mp-1189436,Pr2Zn5Sn,-0.4607082849999999
mp-1189438,TlBi2Cl7,-1.4166974817819995
mp-1189441,ThCrS3,-1.7996033188750005
mp-1189442,Tm3Pt,-0.7412588068750008
mp-1189448,Zr5GaPb3,-0.4065453094444449
mp-1189451,BeCN2,-0.578313020565
mp-1189452,Cr(ClO2)3,-2.893840835728
mp-1189464,ZrTl2PbSe4,-0.8190108755468746
mp-1189470,NbReSi,-0.5131159899999997
mp-1189471,Tb2Sn5Rh3,-0.7268358234999994
mp-1189474,Y7Rh3,-0.6043703478333328
mp-1189476,NdMnO3,-2.963930313873034
mp-1189478,Er3Ir,-0.6162202393749991
mp-1189487,Dy6GaNi2,-0.3562453472222226
mp-1189490,U4Ge6Os7,-0.3577768094117643
mp-1189495,TbB2Os,-0.5545317279166664
mp-1189497,La3Ni,-0.1851669893750003
mp-1189501,La7Pt3,-0.7795948545000002
mp-1189505,N2,8.881784197001252e-16
mp-1189509,Yb3Ni,-0.1965754943750002
mp-1189510,Zr5Sn3S,-0.958584504236112
mp-1189515,LuAl3Ni2,-0.6556430138888882
mp-1189516,Na3ScCl6,-2.288691955956
mp-1189520,NaPS3,-0.9691099855892858
mp-1189524,Tb6IrBr10,-1.6467483105882348
mp-1189528,Ca2ScSbO6,-3.13788552775
mp-1189529,Ho4Ge6Ir7,-0.8843343617647058
mp-1189532,Th3In5,-0.3432625800000011
mp-1189565,Tb3Os,-0.2369034499999998
mp-1189572,As2S3,-0.5227064133750006
mp-1189574,YWC2,-0.2699638620833351
mp-1189581,Nd2Ge5Rh3,-0.8252558494999995
mp-1189582,Y5Ni2Bi,-0.459845474583334
mp-1189596,Pr2Zn5Pb,-0.387431350625
mp-1189598,Y3GaS6,-2.1294986138750005
mp-1189599,Pr3In5,-0.5138866174999999
mp-1189601,Tm2Si5Ni3,-0.7747449111666669
mp-1189603,HoPd3S4,-1.210608900312501
mp-1189614,BaThO3,-3.78427408475
mp-1189615,CsZrUTe5,-0.8506903022413796
mp-1189616,Ta3FeS6,-1.3824254728749992
mp-1189617,Gd3Cu3Sb4,-0.7506469585000005
mp-1189623,Mg2MnB2Ir5,-0.3643423812988516
mp-1189625,Cs2LiScCl6,-2.418132152708873
mp-1189633,Sb2S3,-0.6467650723750011
mp-1189639,Th3Ni3Sn4,-0.6386050875000002
mp-1189644,Pr(LuS2)3,-2.470838628375
mp-1189645,Tb7RhBr12,-1.6241946925000004
mp-1189647,Ba(FeSb3)4,-0.1794783582352938
mp-1189670,GdSiPt2,-1.1336829662499994
mp-1189686,Nd3Ir,-0.4514978968749998
mp-1189687,Pr5Sn3,-0.6827639687499998
mp-1189689,Sc4Si6Ir7,-1.0582423405882349
mp-1189700,Pr4Mg7Ge6,-0.5577733807843134
mp-1189702,ZnCu2SiS4,-0.8827334996875003
mp-1189703,YbGe2Pd,-0.7065102085416668
mp-1189705,Ta9(CoS3)2,-0.9822903269852946
mp-1189707,Nd2Zn5Pb,-0.386334905
mp-1189708,Na3Ag3W2(OF)6,-2.154428807482
mp-1189719,Er3Tl2Cu5S8,-1.3236649747222229
mp-1189721,Er6CoBr10,-1.5487410232352945
mp-1189726,TmZn3,-0.3511025127083336
mp-1189727,La(CoB)4,-0.4450874403703706
mp-1189731,PBr3O,-0.9377027239642856
mp-1189748,Lu2Te3,-1.341221083
mp-1189749,Mg2GaB2Ir5,-0.5369530723333341
mp-1189755,Nd5CuBi3,-0.7011107422222227
mp-1189759,Pr7Ir3,-0.4995235219999998
mp-1189769,DyGaPd2,-0.9005394574999999
mp-1189771,Tb7MnBr12,-1.5200015359827588
mp-1189783,PrAlPd2,-0.8697132500000002
mp-1189784,Ho(BRh)4,-0.5906456375925926
mp-1189791,Y2Te3,-1.4323133973333335
mp-1189793,TiPt3,-0.8464603031249993
mp-1189800,Yb5Ir3,-0.4600043054166667
mp-1189806,Yb2CuGe6,-0.3890875664814809
mp-1189811,Ce(Sb3Ru)4,-0.3403211179411768