material_id,pretty_formula,formation_energy_per_atom
mp-1208336,TbCoB4,-0.5784041088888886
mp-1208341,TbAl3(BO3)4,-3.259024457416666
mp-1208343,Ta6Be15Ni8,-0.4077907346551718
mp-1208346,TbFeB4,-0.599627775972222
mp-1208348,Ta5Ga3B,-0.4212723981481474
mp-1208354,TbGaCo4,-0.2596382705555555
mp-1208358,Th(Ge3Pt)4,-0.3893944735294112
mp-1208359,TbSiNi,-0.7886061700000001
mp-1208360,TbTl(WO4)2,-2.502520202916667
mp-1208361,Tb(Al5Ru)2,-0.5195909811538465
mp-1208365,Th6MnBr15,-1.545816037257054
mp-1208367,Th3Co4Sn13,-0.3218861257500002
mp-1208369,TbPtF7,-2.9450716439811107
mp-1208370,TbAgS2,-1.6495697658333337
mp-1208372,Tb9Mg5Ni4,-0.2488829364814814
mp-1208373,TbAg(WO4)2,-2.37402556611111
mp-1208374,TbSiPd,-0.9998458294444438
mp-1208378,TbCu5Sn,-0.2612222924999997
mp-1208385,Th6NiBr15,-1.5476154145454544
mp-1208386,Tb(Al5Re)2,-0.3562213332692301
mp-1208387,Tb7Co6Sn23,-0.4273295505555552
mp-1208390,Ta6Bi2O19,-2.9409064736574075
mp-1208392,TbMg(BO2)5,-3.109490090441175
mp-1208393,TbTl(MoO4)2,-2.443845140208333
mp-1208397,TlMo2P3O13,-2.401168564840225
mp-1208398,Tl2(SeO4)3,-1.0987979643841914
mp-1208400,Ti5MnSn3,-0.3395843582950191
mp-1208402,UPbI6,-0.73427355375
mp-1208403,TiFeGe,-0.5347687994444436
mp-1208405,Tb5(SiB4)2,-0.6637459997777777
mp-1208407,Tb5SbPt2,-0.9806749731249996
mp-1208409,Ta3CoS6,-1.368757093375001
mp-1208411,Ti3TlSi2P6O25,-2.9507748414237454
mp-1208413,Tb5SbPd2,-0.7639171293749998
mp-1208415,Tb5(SiSb)2,-0.9231526250000002
mp-1208418,Tb5BiPt2,-0.91050562625
mp-1208420,Tb5BiPd2,-0.6898870193749991
mp-1208421,Tb5(ReO6)2,-3.355964036578948
mp-1208423,TbCrGeO5,-2.8500393992187494
mp-1208424,TeBr4,-0.38549120775
mp-1208430,Ta6Nb3Te2S3,-0.6641124510267835
mp-1208432,Ta3MnS6,-1.394578778340518
mp-1208442,Ta2CdO6,-2.960653024999999
mp-1208444,Ta3Tl2Cl9,-1.5997617367385704
mp-1208445,Tb5CuPb3,-0.4973115338888887
mp-1208446,Tb6Co2Sn,-0.3203802544444443
mp-1208447,Sr4Al6SeO12,-3.3589313675656696
mp-1208448,Tb4Ga12Ag,-0.5164865296078422
mp-1208453,Tb3Pt,-0.6957220025000002
mp-1208455,Tb4CdNi,-0.2926684424999995
mp-1208456,Tb4(Al8Pd3)3,-0.7184726043243235
mp-1208458,Tb4MgNi,-0.1959027026388883
mp-1208462,Tb3Ge4,-0.7971629185714286
mp-1208463,Tb4CdIr,-0.5203182904166669
mp-1208464,Tb4MgCo,-0.1453110905555548
mp-1208468,Tb4CdPt,-0.6007306699999996
mp-1208470,TbIn2Pd,-0.6587352332499996
mp-1208474,Tb3B7Mo,-0.5657055762121207
mp-1208475,Ta2Ni3Te5,-0.38565427825
mp-1208476,Tb4CdPd,-0.4456183066666662
mp-1208478,Tb4MgRh,-0.3964049972222216
mp-1208482,U6Al43V4,-0.1906888673584914
mp-1208484,Tb4MgRu,-0.2386827676388888
mp-1208486,Tb3BBr3,-1.2878998136904758
mp-1208487,Tb3BCl3,-1.762371761159048
mp-1208491,Tb3(SbPd2)4,-0.8385906953333337
mp-1208495,Tb3(P3Pd10)2,-0.7307676052216749
mp-1208498,Ti3Zn22,-0.122104955
mp-1208499,Tb6Nb4Al43,-0.3358836477358495
mp-1208500,Tb6Ta4Al43,-0.3103612585849057
mp-1208501,Tb6Ti4Al43,-0.3432464173584907
mp-1208503,Tb3Sb5O12,-2.6703958092500004
mp-1208505,Tb4C2Br3,-1.1576001172222226
mp-1208507,Tl2Mo3P3O17,-2.265353371978572
mp-1208513,Tb2Be2GeO7,-3.2948650540625017
mp-1208515,Tb2Be2SiO7,-3.590692956145834
mp-1208516,Tb3CrS6,-2.085356692125001
mp-1208518,Tb2SiO5,-3.79488101328125
mp-1208520,Tb6InCo2,-0.2503488327777777
mp-1208521,Tb2CdCu2,-0.2981105690000006
mp-1208530,Zn74Pd21,-0.332836209263158
mp-1208531,Tb2Si3Pd,-0.8969969712499992
mp-1208533,Ta3Se12I,-0.5283962283203119
mp-1208535,Tb2(Ga3Ir)3,-0.678373474285714
mp-1208540,Tb2(Al3Rh)3,-0.8388517492857132
mp-1208541,Tl3Cr2(PS4)3,-0.8630296784107138
mp-1208544,Tb2Si4CN6,-1.379229641675383
mp-1208546,Ta24Al19,-0.2654471016279069
mp-1208547,Tb2(Ga3Rh)3,-0.7203202964285705
mp-1208548,Tb3(Al3Os)4,-0.5922138213157898
mp-1208551,Tb(ZnP)3,-0.6081262222448979
mp-1208552,Tb2(Al3Ir)3,-0.8679876914285722
mp-1208554,TaSiPt,-0.7084040499999998
mp-1208555,Tb2(Al3Pd)3,-0.6957682764285715
mp-1208556,Tb6Al43V4,-0.3155357738679249
mp-1208557,TaSiNi,-0.6873835841666663
mp-1208560,TaTlCl6,-1.7316320418199993
mp-1208563,Tb2Sc3Si4,-0.8350869099999996
mp-1208564,TaVP,-0.8243129286904759
mp-1208571,Tl2Ni2(MoO4)3,-1.734376097499999
mp-1208573,Tb12Co5Bi,-0.2665432486111111
mp-1208574,Ta4Se8SI8,-0.5974499530654762
mp-1208575,Tb(ClO4)3,-1.0951110684237495
mp-1208576,TaCoAs,-0.4199610666666669
mp-1208581,Tb2Hf3Si4,-0.8316285736111111
mp-1208587,Ta11(SiSe4)2,-0.6836155327976179
mp-1208595,SrTl2(PO3)4,-2.626583647681704
mp-1208596,SmBe13,-0.1742005080952385
mp-12086,Cu3Pt,-0.1387913300000001
mp-1208602,SrZrF6,-4.157171576100833
mp-1208603,Tb5CoBi2,-0.5563883449999993
mp-1208610,Sr5P3O13,-3.256064037395125
mp-1208613,Ta10Si2MoSe8,-0.6639431277976181
mp-1208616,Tb6Al39Cr8,-0.2846817666037738
mp-1208619,SrLiGaF6,-3.4911686428303703
mp-1208621,SrGa4Au3,-0.4640052733333331
mp-1208625,SrLiVF6,-3.591992172274815
mp-1208626,SrRhO3,-2.0306597060833327
mp-1208629,Sr5Sb2As,-1.034603036354167
mp-1208630,SrC6,-0.0435561395238102
mp-1208643,SrHfS3,-2.2064682517083343
mp-1208648,Tl3Mo4(P2O11)2,-2.271270199675325
mp-1208649,SmGeIr,-0.871057413611112
mp-1208658,TaP4(S2Cl)5,-0.993556830341786
mp-1208662,SrUI6,-1.178013892708333
mp-1208663,SrP2PdO7,-2.6166879909145027
mp-1208669,Ta3Te4ClO15,-2.345041974761303
mp-1208672,SrCo(GeO3)2,-2.309712108916666
mp-1208680,SrMn(GeO3)2,-2.457313310728184
mp-1208682,SmCu5Sn,-0.25596168797619
mp-1208684,SrCa2(TeO3)3,-2.4076367011944444
mp-1208685,SrU(MoO4)4,-2.5095418630303032
mp-1208689,SmGePd,-0.9145684352777776
mp-1208696,SrCa4P3O12F,-3.429374422074808
mp-1208698,Sm(PO3)3,-3.0011879854075088
mp-1208709,Tb2B4O9,-3.2858330887722227
mp-1208714,Tb2(Ga3Ru)3,-0.5435300339285709
mp-1208718,Sr4Mn3BO10,-2.741936344408084
mp-1208721,Sr4CaSi3,-0.4201645895833326
mp-1208727,Sr3Sn4Bi,-0.6102845243749999
mp-1208729,Y15(Ni4P3)7,-1.0592669853906251
mp-1208733,Sr2TaCoO6,-2.926199708833333
mp-1208735,SrAl2H6C2O11,-2.2198777529380296
mp-1208736,Sr2ScBiO6,-2.802369374583333
mp-1208737,Tb2Hf2(MoO4)7,-2.6580941507692306
mp-1208738,Tb12Ni6Pb,-0.3667965705263155
mp-1208742,Sr4Mn3BO10,-2.745079785796973
mp-1208748,Sr4Zr3O10,-3.5996825146568625
mp-1208749,SmBC,-0.3823561687222224
mp-1208758,Sr3Li6Ta2O11,-2.957478175852273
mp-1208760,Sr2ScNbO6,-3.5098791405833323
mp-1208761,Sr2SmTaO6,-3.5561433129166664
mp-1208762,Sr2MnTeO6,-2.522954296144851
mp-1208764,U2Si7Ru12,-0.595220023571428
mp-1208766,Sr2VBrO4,-2.917502986354167
mp-1208770,Sr3Li6Nb2O11,-2.8569664538068182
mp-1208773,Sr2TlBr5,-1.8311364757291664
mp-1208774,Sr5Re3BrO15,-2.7449584355034715
mp-1208776,Sr2ScTaO6,-3.631681888083333
mp-1208777,Sr3NbGa3(SiO7)2,-3.054631991195653
mp-1208779,Sr2NdBeO5,-3.138842441620371
mp-1208780,TbZr6(PO4)9,-3.250817246387363
mp-1208781,Sm11(Fe2C3)6,-0.2265389143089423
mp-1208782,SrCaB11H7O22,-2.604022654908888
mp-1208784,Sr2TlCl5,-2.4889090271416667
mp-1208790,Tb23Cd4Rh7,-0.5217304904411761
mp-1208793,SmMg5Sb4,-0.5033125329999997
mp-1208796,Sr4SiP4,-1.0237217670502647
mp-12088,Dy(SiOs)2,-0.724818513999999
mp-1208801,Tb2(SO4)3,-2.786652128051471
mp-1208802,Sr3Ga2Cl2O5,-2.8190212560641665
mp-1208807,Sr3SbI3,-1.525812812857143
mp-1208812,SmCrGeO5,-2.8329904786979165
mp-1208818,Sr2LaBeO5,-3.163777578287037
mp-1208820,Sr2LuTaO6,-3.610287516083333
mp-1208823,SrGaF5,-3.517288268409524
mp-1208824,Sm6Nb4Al43,-0.3275370351886795
mp-1208825,Sr2InBr5,-1.7736478116666663
mp-1208826,Sm3Ga2Sn3,-0.6950921500000007
mp-1208827,SrMgV2O7,-2.8035864126136363
mp-1208829,Sr3Sc2(GeO4)3,-3.0657193307499995
mp-1208832,SmLuSe3,-1.8664897410729169
mp-1208834,Sr2CrSbO6,-2.683874370833332
mp-1208838,SmSbPd,-1.0857572144444445
mp-1208839,Sr2H6Pt,-0.6626713944503698
mp-1208842,SmTeAs,-1.21423661361111
mp-1208844,SmSBr,-2.225972052986112
mp-1208846,Sr2CoSi2O7,-3.123507437048611
mp-1208848,Sm2MgSi2,-0.6994405050000004
mp-1208849,SmZnGe,-0.6956853327777779
mp-1208852,Sn4Rh,-0.2864555579999991
mp-1208854,SmAs2Pd3,-0.8169720327777775
mp-1208857,Sm3B2(O2F)3,-3.7680629112669046
mp-1208860,SmAl3(BO3)4,-3.251313355083333
mp-1208861,Sm3HfSb5,-0.9069260616666668
mp-1208862,SmMg(BO2)5,-3.102307546960784
mp-1208868,Sm3W(ClO2)3,-3.1070287047907685
mp-1208872,SmAl8SiAu4,-0.5181797180952381
mp-1208879,SnIBr,-0.6415870949999999
mp-1208880,Sm2SiO5,-3.735555370989584
mp-1208881,Sr2CaSbO6,-2.750950301583333
mp-1208883,SmAsSe,-1.4563870868923618
mp-1208884,Sm2Be2SiO7,-3.558156277534723
mp-1208885,SmVSb3,-0.5212394071666665
mp-1208886,SmAl3(BO3)4,-3.248542619333334
mp-1208891,Sm2Si5Pt3,-0.9836684711666664
mp-1208892,Sm6Al43V4,-0.3051926703773587
mp-1208894,Sm2Si5Pd3,-0.8328134471666673
mp-1208895,Sm2HgO4,-2.98631139452381
mp-1208896,SmSbRh,-1.0050323119444435
mp-1208897,Sr(MgIn)2,-0.2737972446666667
mp-1208899,Sm2(Al3Ir)3,-0.8615387397619045
mp-1208900,Sm(Al5Ru)2,-0.5213056483333335
mp-1208905,Sm2(Al3Rh)3,-0.8314828261904766
mp-1208907,Sm2Si5Rh3,-0.9816464381666664
mp-1208908,Sm4PdO7,-3.350791335173612
mp-1208914,Sm3(Al3Ru)4,-0.6443853602631585
mp-1208915,Sm2Sc3Si4,-0.808080431574074
mp-1208919,Sm2MgPtO6,-2.898675194249999
mp-1208920,Sm2CoPtO6,-2.5661884709166665
mp-1208924,Ti4S24Cl6O,-1.272582874237428
mp-1208926,Sm2(Ga3Ir)3,-0.6834989544047622
mp-1208935,Sm3(Al3Os)4,-0.5719611539473681
mp-1208937,Sm4CdIr,-0.4359649784722214
mp-1208941,Sm4CdPt,-0.5211319397222217
mp-1208946,Sr2FeIrO6,-2.2793850950833336
mp-1208948,Sm2(Ga3Rh)3,-0.7248158101190475
mp-1208950,SmMn6(Sn2Ge)2,-0.219768980097259
mp-1208951,Sr(AuF6)2,-1.7837338190631111
mp-1208952,ScTaN2,-1.8357552461899989
mp-1208953,Sm2(Al3Co)3,-0.5410212308333341
mp-1208961,SmIn2Cl5,-1.9306685758916664
mp-1208970,Sm3(P3Pd10)2,-0.7159943983251229
mp-1208973,Sc2Ga8Ni,-0.4661165945454542
mp-1208977,Sm3(SiRh)2,-0.8657298842857141
mp-1208979,SmAg(WO4)2,-2.364657605972223
mp-1208980,Sm2(SO4)3,-2.7430946006495094
mp-1208981,Sm3(Si3Pd10)2,-0.8175243172413786
mp-1208983,Sc2GaB2Ir5,-0.8431583866666656
mp-1208984,Sc2BeB2Ir5,-0.8217731506666667
mp-1208986,Sc2GeB2Ir5,-0.7921956346666675
mp-1208990,Sc2CoB2Ir5,-0.6313635201666656
mp-1208992,SmSiPd,-0.9399984616666662
mp-1208994,ScTl(SO4)2,-2.4314786309374994
mp-1208995,ScTl3F6,-2.946502455714
mp-1208997,Sc2TiB2Ir5,-0.894408241666666
mp-1208999,ScAgSn,-0.4664987272222226
mp-1209,RbAu5,-0.1898843812500003
mp-1209000,Sc2CuB2Ir5,-0.6944802621666668
mp-1209001,Sm3(Ge3Pd10)2,-0.6741439168965513
mp-1209004,Sc2TlCu3Se5,-0.8888672087926136
mp-1209005,Sr2B5BrO9,-3.009581625661764
mp-1209009,Sc2Mn3Si,-0.3878420589942533
mp-1209010,Sc2Be17,-0.1744323121052635
mp-1209018,Sc2TlCu3S5,-1.325854995056818
mp-1209021,Sr3Tm2(GeO4)3,-3.1045665139583334
mp-1209024,Sc6Sn5,-0.674330875
mp-1209025,Sc2AlB2Ir5,-0.9291211401666658
mp-1209027,Sr2V2OF10,-3.5386715025988886
mp-1209028,Sn3IF5,-2.2447293067722227
mp-1209040,Sm3Sc2Al3O12,-3.78982924275
mp-1209041,Si9Ni25,-0.4663843872058819
mp-1209044,Sc5Sb3,-0.8597222584375004
mp-1209045,UP3O11,-2.727395993130952
mp-1209046,ScBi3(MoO6)2,-2.221220708333333
mp-1209056,Sc2NiB2Ir5,-0.6851251416666656
mp-1209061,Sc4Ge6Ir7,-0.8631842452941164
mp-1209063,Re4As5S4,-0.5384504794230764
mp-1209072,SbSeBr,-0.4409718424479164
mp-1209078,RbWCl6,-1.5999340377574995
mp-1209082,RbYSeCl2O3,-2.421691946055886
mp-1209088,RbYBeF6,-3.900288457552593
mp-1209089,Sc2(Al3Co)3,-0.5650062560714285
mp-1209090,RbTmBeF6,-3.924172113108148
mp-1209091,RbTb3F10,-4.315030174242858
mp-1209099,RbTb(MoO4)2,-2.589766463541666
mp-1209109,RhF6,-1.6309249924485716
mp-1209111,RbSrCl3,-2.620401321789333
mp-1209114,RbTm(MoO4)2,-2.592404641736111
mp-1209116,RbSm3F10,-4.283740564242857
mp-1209125,RbYbBeF6,-3.4441954823674075
mp-1209130,Sc2InPd2,-0.8200313874999999
mp-1209131,Sn9Pd13,-0.5361848809090906
mp-1209133,RbY(WO4)2,-2.658863252569444
mp-1209134,Sm12Co6Sn,-0.2137124226315786
mp-1209136,RbSm(WO4)2,-2.653420119236111
mp-1209138,RbYb(WO4)2,-2.396337424930556
mp-1209139,Sb4Te7Pb,-0.167720750833333
mp-1209142,TlAs5PbS9,-0.5897274587890626
mp-1209144,RbTb(WO4)2,-2.666828470624999
mp-1209147,Sm6Ti4Al43,-0.3342623221698113
mp-1209157,RbTm(WO4)2,-2.6740208996527777
mp-1209161,RbSr2Cl5,-2.7285321249541665
mp-1209169,RbVSeO5,-1.9851844448242195
mp-1209170,RbSm2Cl7,-2.662504153948667
mp-1209173,RbCuTeS3,-0.7518432248958327
mp-1209179,RbSbCl6,-1.5006146808825005
mp-1209180,RbSc(MoO4)2,-2.5864398735416665
mp-1209182,RbY2Cl7,-2.6671776759486674
mp-1209185,RbPrF4,-3.969938887043334
mp-1209186,Sm6Ta4Al43,-0.3020047019811324
mp-1209187,RbSc(SO4)2,-2.614568461562499
mp-1209188,RbTb2Cl7,-2.677028689782
mp-1209189,RbSr2Br5,-2.060679784166667
mp-1209192,Sb2Cl7F3,-1.6099806459491666
mp-1209196,RbTmP2O7,-3.172131964247835
mp-1209197,Sr3Er2(GeO4)3,-3.094430947499999
mp-1209201,Sm(AlBr4)3,-1.327138921666667
mp-1209204,RbZr6CI14,-1.0255145742045462
mp-1209211,RbDyBeF6,-3.9162708044044447
mp-1209213,RbGa(SO4)2,-2.1638198319791666
mp-1209214,RbHg5Cl11,-1.1539273701976471
mp-1209215,Sb3IO4,-1.5463896473437495
mp-1209216,Sm2(Ga3Ru)3,-0.5443747433333337
mp-1209219,RbNbCl6,-1.8977548365075003
mp-1209220,RbFe(SO4)2,-2.119047464479167
mp-1209222,RbLuBeF6,-3.918672191626666
mp-1209224,RbYbP2O7,-2.8557015093235933
mp-1209225,RbNdF4,-3.975988217043333
mp-1209226,RbGaAgF6,-2.513688301997037
mp-1209229,RbHoBeF6,-3.9168056027377776
mp-1209234,RbCr(SO4)2,-2.252959921562501
mp-1209238,RbCaBr3,-1.9649599455
mp-1209239,RbSc(WO4)2,-2.599308927708333
mp-1209241,RbAlH4,-0.3021810299133332
mp-1209248,RbAl(MoO4)2,-2.4383321397916653
mp-1209249,Sm2Hf2(MoO4)7,-2.651735697350428
mp-1209250,Sb3IO4,-1.5455816206249997
mp-1209252,ReF6,-2.501628959948572
mp-1209254,RbY(MoO4)2,-2.6048652334027764
mp-1209255,RbSb2PO8,-2.229522622380953
mp-1209267,Rb2VF6,-3.0939363713488888
mp-1209268,RbErBeF6,-3.9182377727377777
mp-1209273,Rb3GeF7,-3.028878099166364
mp-1209276,RbPr(WO4)2,-2.6391089456249994
mp-1209277,Rb3Ca2Cl7,-2.5343927996100004
mp-1209282,Rb3ScF6,-3.563931863464
mp-1209283,PrZrF7,-4.234235738703333
mp-1209284,Re3Te4Br3,-0.2429688209999994
mp-1209285,PrSbIr,-0.8489573441666671
mp-1209286,Rb6CdO4,-1.2656473572727271
mp-1209288,PrTeAs,-1.2230629174999994
mp-1209289,RbGd3F10,-4.246966804957142
mp-1209290,SmCO4,-2.5117470763888887
mp-1209292,Sc6InCo2,-0.3285547794444446
mp-1209293,PrSBr,-2.234700046041667
mp-1209294,RbSm(MoO4)2,-2.5980367290277777
mp-1209295,RbBi3F10,-2.868448619957144
mp-1209297,PrZnGe,-0.6911935375000002
mp-1209298,RbP15,-0.103060659129464
mp-1209299,PrSiOs2C,-0.4567922979999991
mp-1209302,Rb2TcCl6,-1.7515494282844446
mp-1209305,Rb3Yb(PO4)2,-2.781220717593537
mp-1209306,Rb6Na4Tl13,-0.1280172663043476
mp-1209309,Pr(Al5Os)2,-0.4579364834615387
mp-1209310,PrSi2Ir3,-0.9415082249999998
mp-1209312,RbTi3Si2P6O25,-3.009547873112935
mp-1209316,Rb2Ti(AgS2)2,-1.2820245804629624
mp-1209318,SbTe8Cl6O6F31,-2.094996828345192
mp-1209320,RbAgTeS3,-0.7332503633680562
mp-1209322,RbSm(SeO4)2,-2.0147449481684028
mp-1209324,RbBePO4,-2.8907963672959176
mp-1209327,RbBi3Se5,-0.5727664974131943
mp-1209328,PrSI,-2.003783695625
mp-1209329,PrVO3,-3.2112150567500004
mp-1209333,Pr3Bi4Pt3,-0.8431478564999992
mp-1209334,RbHo(WO4)2,-2.668661812708333
mp-1209336,Pr2Sn3,-0.7169106839999998
mp-1209338,Rb2Sr(PO3)4,-2.8453943411027574
mp-1209341,PrSBr,-2.2276068277083336
mp-1209343,Sr2In4Au3,-0.540006731759259
mp-1209344,PrSi3N5,-1.4424187240999995
mp-1209345,Pr5AgSn3,-0.6473243275925924
mp-1209346,PrSiIr,-0.943042281666667
mp-1209350,Rb3YV2O8,-2.7190796568452384
mp-1209351,Pr2ZnPtO6,-2.57085688525
mp-1209357,Rb3Y(PO4)2,-2.960705047355442
mp-1209358,Rb3Ta2AsS11,-1.2701852312867652
mp-1209359,RbLu(WO4)2,-2.672865503125
mp-1209360,Pr5Bi3Br,-1.0107018755555552
mp-1209362,RbGd2Cl7,-2.674196644282
mp-1209363,Rb2UTe3,-0.8473303916666671
mp-1209364,Rb3MnBr5,-1.463699998017242
mp-1209365,PrNiAs,-1.0146337366666671
mp-1209366,Pr3(ReO5)2,-2.9891133885000007
mp-1209367,RbEr(WO4)2,-2.669561658541666
mp-1209368,Rb3HoV2O8,-2.727097160178571
mp-1209371,RbDy(MoO4)2,-2.6126466143749987
mp-1209372,RbEr2Cl7,-2.662550098282
mp-1209374,Pr3(Al3Os)4,-0.5572504671052627
mp-1209375,Rb3Dy(PO4)2,-2.973955751403061
mp-1209376,RbAlCuF6,-3.060335925793334
mp-1209377,Pr2TeO6,-2.9403518627777783
mp-1209378,Pr4OsI5,-1.0732849114999994
mp-1209379,RbCOF3,-2.3382522216366666
mp-1209381,Pr3(Al3Ru)4,-0.630073865263158
mp-1209385,RbAg(PO3)2,-2.33971879554762
mp-1209387,Rb5In(MoO4)4,-2.206376487980769
mp-1209388,Sc2InAu2,-0.7360481594999996
mp-1209389,PrTl(WO4)2,-2.4752515508333324
mp-1209393,RbGd(MoO4)2,-2.5999829704166664
mp-1209395,Pr3BBr3,-1.2573471276190469
mp-1209396,Pr2SiS5,-1.9709987822656243
mp-1209397,Sn2(PCl8)3,-1.1736569149639406
mp-1209398,Rb3LuV2O8,-2.74031514875
mp-1209401,Sr5Re3IO15,-2.709861137378472
mp-1209402,Rb3Ho(PO4)2,-2.975386061403061
mp-1209403,RbFeI4,-0.6490903512499999
mp-1209406,RbHo2Cl7,-2.6680076317820003
mp-1209407,Pr4Re6O19,-2.62803623012931
mp-1209409,RbNaTi2(PO5)2,-3.032716881852678
mp-1209416,Rb3ErCl6,-2.494797331706
mp-1209420,Rb3Tm(PO4)2,-2.984702131641157
mp-1209422,RbAlCl4,-2.171919973423333
mp-1209423,RbBa2I5,-1.7408349771875
mp-1209424,Rb2Hg3(GeS4)2,-0.869928359666666
mp-1209428,Rb3DyCl6,-2.493094599456
mp-1209429,Pr3(Si3Pd10)2,-0.797083399827586
mp-1209430,Pr3(P3Pd10)2,-0.6954748105665021
mp-1209432,Pr3AsBr3,-1.6147853503571423
mp-1209435,RbMo3(PO7)2,-2.351004290607144
mp-1209437,RbBa2Br5,-2.1190956937500003
mp-1209439,Rb8Ta6O19,-2.9461122010227254
mp-1209441,Rb2MnI4,-1.0845979642364532
mp-1209443,Rb3TmCl6,-2.495900695789333
mp-1209444,Pr4MgRh,-0.3169996922222218
mp-1209447,Rb2GdCl5,-2.5378573076625
mp-1209449,Rb3LuCl6,-2.493672185206
mp-1209452,Rb2TmCl5,-2.531751259329167
mp-1209453,Rb3Au3Br8,-0.8938326855357143
mp-1209454,RbPr(SeO4)2,-2.016173236640625
mp-1209455,Rb3TbCl6,-2.491816020206
mp-1209457,Sb3Cl11F4,-1.5664810185066669
mp-1209460,Rb2Mo(OF2)2,-2.7457853019177776
mp-1209461,Rb2W3SeO12,-2.1059872265190966
mp-1209462,Rb3NaRe2O9,-2.24139165525
mp-1209464,Rb8Zr6BBr20,-1.5824982819523816
mp-1209465,Rb2Mo(OF2)2,-2.74815568414
mp-1209467,RbAlBr4,-1.4230413275
mp-1209470,Pr2WO6,-3.1857182194444444
mp-1209471,RbHoP2O7,-3.160192948035716
mp-1209472,Rb2Zr(MoO4)3,-2.4496871069444444
mp-1209478,Rb2Li3GaO4,-2.03381746
mp-1209481,Rb4WO5,-2.032165546291666
mp-1209486,Rb4UC3O11,-2.466824880723685
mp-1209487,RbLa(SeO4)2,-2.046044999973958
mp-1209488,Rb2PrBr5,-1.8833768571875005
mp-1209489,Rb2Pb2O3,-1.5459270955357138
mp-1209491,Rb8Zr6BeBr20,-1.5365626161428574
mp-1209492,Rb3HoCl6,-2.4941304357060003
mp-1209493,Rb8Hf(MoO4)6,-2.3725631166666656
mp-1209496,RbCeF4,-3.9083647291266654
mp-1209497,Rb2Si2Se5,-0.834664101024305
mp-1209498,RbP11,-0.1245195822321427
mp-1209499,Rb2Cd2O3,-1.3917032869642856
mp-1209500,Rb2NdBr5,-1.8802187725
mp-1209503,Rb8Zr6MnBr20,-1.513170529133005
mp-1209505,Rb3Zr6BeCl15,-2.0790124244560007
mp-1209508,RbMo3Cl7,-1.5124333282109093
mp-1209512,Rb2HoCl5,-2.529128805475
mp-1209518,Rb2SmBr5,-1.8647961869791665
mp-1209521,Rb2SmCl5,-2.530072398391667
mp-1209523,Rb3Sc2Br9,-1.786065645892857
mp-1209524,Rb2NdCl5,-2.541428949225
mp-1209526,PrBPt2,-0.9044460566666668
mp-1209527,Pr3(Sn3Pd2)2,-0.7907493780769232
mp-1209528,PdPb2F6,-2.310274148571111
mp-1209530,Rb2UBr5,-1.5828833815624996
mp-1209533,RbGaBr4,-1.2220003337500005
mp-1209543,Rb2UF7,-3.592111906833
mp-1209546,Rb3SmCl6,-2.474682741289333
mp-1209547,PrAsSe,-1.4534293916145835
mp-1209548,Rb(RuO2)4,-1.4858675813461537
mp-1209554,PrAlRh,-0.804692075833333
mp-1209557,PrHf2F11,-4.275374875934999
mp-1209562,Rb2PrI5,-1.4966416178125
mp-1209566,PrTa7O19,-3.430559167175925
mp-1209575,Rb2NdI5,-1.4903678193749998
mp-1209577,Rb2Y2(PO4)3,-3.104861783941103
mp-1209583,Rb2LaNb5O15,-3.1067365940760854
mp-1209584,Rb2Th(NO3)6,-1.537308603584444
mp-1209587,RbEr(MoO4)2,-2.6156461766666665
mp-1209602,Rb5V3O10,-2.393645964861111
mp-1209604,PrGa4Os,-0.462053537499999
mp-1209606,RbFeBr4,-0.9769172991666668
mp-1209610,Rb2LaCl5,-2.595104274225
mp-1209612,Rb2LaBr5,-1.937596681875
mp-1209613,Rb2LuCl5,-2.5300712320375
mp-1209616,Rb2LaF5,-3.7558396813687502
mp-1209620,Rb2Mg2(SO4)3,-2.48966300439693
mp-1209621,PrGaGe2O7,-2.574249106704546
mp-1209626,Rb2ErCl5,-2.5304114776625
mp-1209627,Rb2MoP2O9,-2.535556110956633
mp-1209628,RbGaSnSe4,-0.7233500381249998
mp-1209629,RbHo(MoO4)2,-2.616109462083332
mp-1209631,Pr5CoSb2,-0.6635114418750003
mp-1209633,Rb2Ti2(PO4)3,-2.9712736201691725
mp-1209635,Pr5Sn3Au,-0.7472478238888888