material_id,pretty_formula,formation_energy_per_atom
mp-12922,NdPIr,-1.1464260528571433
mp-12923,SrPIr,-0.980859531746032
mp-1292349,AlV2O4,-2.760302925714285
mp-12924,KLaSiS4,-1.8567021007857143
mp-12927,Ba(BeN)2,-1.1178649999519998
mp-12929,SmAsO4,-2.8310912430555555
mp-1293017,Ba2YMn3O8,-2.689309816798489
mp-12931,SmTaO4,-3.7116161872222215
mp-1293180,SrCo2(AsO4)2,-2.0077210858974364
mp-12932,TbTaO4,-3.743209329166666
mp-12933,TmTaO4,-3.7615821705555534
mp-1293627,Co3O4,-1.3798558864285713
mp-1293838,Sr3Cr2O8,-2.6396782388461526
mp-1294,YCo2,-0.1536461811111114
mp-12940,HoIn5Rh,-0.3962550357142861
mp-12944,HoAsO4,-2.862241481666666
mp-12947,LaMgCu2,-0.1865083820833328
mp-1295,Yb4Sb3,-0.9821795295238098
mp-1295096,Li2Mn3CoO8,-1.981255382155633
mp-12951,ZrGaAu,-0.5982307533333332
mp-12952,HfGaAu,-0.5117832316666657
mp-12954,CuBS2,-0.6728749598958332
mp-12955,HoAgSe2,-1.2028817638802085
mp-12956,Yb(FeP3)4,-0.5571981635014003
mp-12957,O2,0.0
mp-1295700,Sr2CoO4,-2.394730831904761
mp-1295764,Ba3Cr2O8,-2.641165277692308
mp-1295957,BaCoO3,-2.1082007457500014
mp-12960,Er5Sb3,-0.8822434206249996
mp-12961,YAlPd,-0.881495027777778
mp-12962,Zr6FeSb2,-0.5209107866666661
mp-1296207,FePH6NO5,-1.6143713817086731
mp-1296272,CoBi6(SO8)2,-1.84052462555
mp-12964,TbNi4B,-0.4941003913888882
mp-1296462,La4FeSe6O,-2.0389036489843746
mp-12965,ErNi4B,-0.5074357755555555
mp-1296711,LaCoO3,-2.661323244750001
mp-1296745,La2MgFeO6,-3.052820433083334
mp-1296841,CoPH6NO5,-1.5542759351015312
mp-1297,Tl9Pd13,-0.2177097177272722
mp-12972,Zr6Sb2Pt,-0.722038956666667
mp-12974,Pr2CdPd2,-0.7311423789999999
mp-12975,Sm2CdPd2,-0.768862081333333
mp-12977,Dy2CdPd2,-0.8126531460000003
mp-1297758,LaFeTeO6,-2.416972736111112
mp-1298,KAu5,-0.2265864354999998
mp-1298274,Mg4FeO5,-2.7927918344583333
mp-1298346,Sr2CoO4,-2.391296276190476
mp-12984,TbCuSe2,-1.217998708671875
mp-1298582,Mg2MnWO6,-2.557073075478184
mp-1298606,Li2VOF4,-3.0429362002304163
mp-1298732,Li2Ni3BiO8,-1.289939832738095
mp-1299,SiPt2,-0.7143489683333341
mp-12990,Ti2AlC,-0.7004909312499992
mp-1299167,Ba2FeMoO6,-2.59083465025
mp-12996,LaMg2Pd,-0.5471327904166663
mp-1299695,Sr2MnNbO6,-2.999661020894851
mp-1299846,VReO4,-2.245914725416666
mp-13,Fe,0.0
mp-13000,Ba2HoTaO6,-3.60195837075
mp-13001,Ba2HoTaO6,-3.6011714407499995
mp-13002,K2SiF6,-3.4465949209044444
mp-13010,YSn2,-0.6217494794444439
mp-1301405,Co5SbO8,-1.583533428571429
mp-1301681,Zn(NiO2)2,-1.1278075800000005
mp-1301795,Li4Ni3BiO8,-1.551644668541667
mp-13019,NaLa2TaO6,-3.51779309625
mp-13020,Ti5CuSb2,-0.3908534156249992
mp-1302128,Mn2V3NiO8,-2.2040123354450247
mp-1302251,Co5SbO8,-1.5774096610714292
mp-1302296,V2Cu3NiO6,-1.5947367493749998
mp-1302478,LiV3Zn2O8,-2.3214078590476186
mp-13025,YbZnPd,-0.7418056397222221
mp-13026,YbZnPt,-0.9261093555555552
mp-1302630,Li2TiV3O8,-2.726405613452381
mp-13027,YbZnAu,-0.7237881272222223
mp-1302830,V4OF11,-3.14851816495875
mp-1302892,Li2V3CrO8,-2.4934191430952373
mp-1303020,Li2Mn3TeO8,-2.006096683584204
mp-13031,MgSe,-1.2498964878385417
mp-13033,MgTe,-0.8765535916666667
mp-1303435,LiFeBO3,-2.413762969236112
mp-1303638,V4OF11,-3.1483585980837496
mp-13037,TmGe2,-0.6031730594444445
mp-13038,Dy2C(NO)2,-2.5043077338942865
mp-1303832,LiV3Zn2O8,-2.323446048333333
mp-13039,Tm2C(NO)2,-2.540977613418096
mp-1303958,Li2Ni3SbO8,-1.480161717380953
mp-1304,Zr5Si4,-0.9055407497222204
mp-13042,NaSr3TaO6,-3.1758111215909093
mp-1304367,Co5SbO8,-1.5779270578571436
mp-1304584,Li2TiV3O8,-2.729906983452381
mp-1304711,Ca2CoIrO6,-2.1629366545
mp-1304797,Sr3InNiO6,-2.388011671136363
mp-1305171,LiMn(CO3)2,-1.992392313478184
mp-13053,SrSi,-0.4604678770833326
mp-1305321,Li2MnO2F,-2.500355687939751
mp-1305455,Li2Ni3TeO8,-1.4536066880952383
mp-13055,Ba2LaTaO6,-3.5167547482500003
mp-13056,Ba2LaTaO6,-3.51634176825
mp-1305927,Sr3InNiO6,-2.384724511136364
mp-1305992,Li4Ni3SbO8,-1.7241787266666666
mp-1306,ThAl3,-0.40191443375
mp-1306165,Li2Mn3GaO8,-2.1270803817984896
mp-1306614,Li2MnO2F,-2.500385868356417
mp-13069,Er(AlGe)2,-0.3954055539999991
mp-1306933,CoBi6(SO8)2,-1.8481189441499992
mp-1307,LiGa,-0.3152202958333334
mp-1307146,Ca2FeIrO6,-2.30002937175
mp-13073,PrNiGe3,-0.5984050509999996
mp-13074,LuNiPb,-0.4067816055555558
mp-1307659,Li2Mn3GaO8,-2.124641718941347
mp-1307768,LiMn(CO3)2,-1.9955688512281848
mp-1307846,Li2VOF4,-3.0428581661679166
mp-1308028,Li2TiV3O8,-2.725188431309524
mp-13082,Mn2CoSi,-0.3699193598275858
mp-1308212,Li2FeO3,-1.9644358278472216
mp-1308394,NaCo2H3(SeO5)2,-1.434951584891528
mp-1308804,Li2V3WO8,-2.421191684523809
mp-1308812,SrLa2(CoO3)3,-2.459131812527778
mp-1308941,Ca3MnCoO6,-2.642427208010469
mp-13090,YMgAl,-0.3332021677777774
mp-1309047,Li2V3WO8,-2.423274328452381
mp-13093,La3Ni2Sn7,-0.6543021137500004
mp-13094,YAl2Ni,-0.6470858558333328
mp-13095,YAlNi,-0.6011917744444446
mp-13097,NaZnAs,-0.4201816450000001
mp-1309882,Ba2TaMnO6,-3.082834088311516
mp-1309988,Li2Mn3CoO8,-1.980693569655632
mp-131,Zr,0.0
mp-1310,TbRh2,-0.754073409999999
mp-1310415,Li2Mn3TeO8,-2.007905328584204
mp-1310582,NaFeH4SO6F,-1.910783291521072
mp-13109,SrHfO3,-3.819452113083334
mp-1311338,KMnSn3O8,-2.0934960922011663
mp-1311459,Sr5Mn5O13,-2.5584428105504
mp-1311506,Na2FeO3,-1.7286697439583325
mp-1311636,LiV3Zn2O8,-2.3194801397619043
mp-1311728,Li4Ni3SbO8,-1.723011236354166
mp-13118,CeZn3Pd2,-0.5717105116666664
mp-13119,CdO,-1.3734753856250004
mp-1311980,Na2FeO3,-1.7244987527083329
mp-13120,CeSi3Ru,-0.7225654359999993
mp-1312000,La4FeSe6O,-2.038899820026041
mp-13122,CeGe3Ir,-0.6589079089999998
mp-13123,LaGe3Rh,-0.7076144249999998
mp-1312784,Li4Ni3BiO8,-1.5496871541666666
mp-13133,K2TiO3,-2.776031124958333
mp-1313379,TaMnO4,-2.792387835519196
mp-13137,Hf2CS,-1.5051008620312525
mp-13139,SrLiGe2,-0.5342235302083331
mp-1313955,Li4Ni3SbO8,-1.7240631938541666
mp-1314,Li12Si7,-0.2488158919078944
mp-13140,BaLiGe2,-0.5337658135416663
mp-1314196,Na2FeO3,-1.7229228147916658
mp-1314406,Li2Mn3GaO8,-2.118322775727061
mp-1314584,KMnSn3O8,-2.0967063045088588
mp-13149,BaAlSi,-0.3884912283333328
mp-1315,MgS,-1.7593102832291665
mp-13150,BN,-1.470854485356666
mp-13155,Hf2Ag,-0.116719901111112
mp-13156,HfAg,-0.1151288891666668
mp-1315626,SrLa2(CoO3)3,-2.457655322194445
mp-13159,GdZnGe,-0.6783485758333327
mp-13160,YZnGe,-0.6873803527777778
mp-13163,TbZnSn,-0.6094814774999998
mp-13164,Ti2Pd,-0.4507556200000001
mp-1316653,Li2VOF4,-3.0429986808554164
mp-1317,CoSb3,-0.1877364262500007
mp-13170,KNaGdNbO5,-3.020812459361112
mp-13171,YMgCu,-0.2156793322222228
mp-13172,YMgCu4,-0.2332732027777773
mp-1317688,Li2V3CrO8,-2.48994802345238
mp-1317973,CaV2O4,-2.7777998857142854
mp-13182,Li2TiGeO5,-2.7250547271759253
mp-13187,Mg2Tl2(MoO4)3,-2.19760402245614
mp-1318835,Ba2TaMnO6,-3.081100780561516
mp-13189,SrLuCuS3,-2.014472275173611
mp-13190,KRb2GaF6,-3.0874488785140004
mp-13194,PrSbO4,-2.7936416875000005
mp-1319472,Li2V3CoO8,-2.449086144166667
mp-13195,NdSbO4,-2.8093431416666665
mp-13196,SmSbO4,-2.8355037330555555
mp-1319763,Li4Ni3SbO8,-1.7189571751041663
mp-13199,Zn3TeO6,-1.7088407279166669
mp-1319906,Li2TiV3O8,-2.7270654845238096
mp-132,Ca,0.0
mp-1320,CeSe2,-1.592987237395833
mp-13200,LuCuSn,-0.5685360533333329
mp-13202,YCuSn,-0.6208259327777768
mp-13203,ScCuSn,-0.5465818649999997
mp-13206,PrZnPO,-1.9798200049553567
mp-13207,CeZnPO,-1.9760723549553576
mp-13208,Mg2Pt,-0.7106874138888889
mp-1321,CdSb,-0.04575475125
mp-13211,Ag2Te2O7,-1.1117060959469698
mp-1321185,Ca2MgFe(CO3)4,-2.439067818791668
mp-13212,GdCuGe,-0.6535103849999994
mp-13218,YMg2Cu9,-0.1746054020833334
mp-13220,PrMg2Cu9,-0.1628023484722221
mp-13221,NdMg2Cu9,-0.1670192905555551
mp-13222,SmMg2Cu9,-0.1726299337499993
mp-1322317,LiFeMoClO4,-2.061161570615833
mp-13225,DyMg2Cu9,-0.1741037522222222
mp-13226,HoMg2Cu9,-0.1758842176388881
mp-13227,YbMg2Cu9,-0.1898802565277773
mp-13229,K3GdF6,-3.583244941614
mp-13230,K3YF6,-3.611201158447334
mp-13236,Ho5Si3,-0.6918714374999997
mp-13240,ScInCu4,-0.2601335458333332
mp-13241,MgSi7Ir3,-0.5215100930303023
mp-13243,ScU3Sb5,-0.4704463977777785
mp-13250,LaSnPt,-1.0841653394444448
mp-13252,SnB4O7,-2.6249804393402782
mp-13254,CeMgZn2,-0.257188257083333
mp-1326,Nb3Sn,-0.1681781787500007
mp-13263,Ce2Mo2C3,-0.2871666028571432
mp-13264,Sm2Mo2C3,-0.2456881823809524
mp-13268,GdCo4B,-0.2769486288888896
mp-1327,NdMg,-0.1101317466666667
mp-13270,CaAg2,-0.2971064755555555
mp-13271,ErAsPd,-1.1892476883333327
mp-13272,BaAlGe,-0.4777292166666669
mp-13275,NaSrP,-0.7995615223015867
mp-13276,SrLiP,-0.9778075723015872
mp-13277,BaLiP,-0.910137805079365
mp-1328,SrRh2,-0.281902603888889
mp-13283,Sm(ErS2)3,-2.4772951692083334
mp-13285,NaPd3O4,-1.08893438625
mp-13286,CaGe2,-0.4848389850000003
mp-13287,BaCuTeF,-2.0333208477975
mp-1329,LaTe2,-1.3983916683333335
mp-13305,SmSnAu,-0.8575312811111111
mp-1331,YCd2,-0.3430486677777775
mp-13311,SrAlGe,-0.4722284788888888
mp-13312,ScTlS2,-1.6995875278125006
mp-13313,ScTlSe2,-1.2530097274218748
mp-13314,ScTlTe2,-0.9208418187500004
mp-1332,Si3Mo5,-0.4009594231249984
mp-13322,LiGeRh2,-0.640341021666667
mp-13326,PrLuSe3,-1.8751958564062496
mp-13327,NdLuSe3,-1.87053721340625
mp-13336,RbSc5Te8,-1.2365884251785713
mp-1334,Y2C,-0.2862472055555554
mp-13341,YB4Rh,-0.607132356527778
mp-13342,ErB4Rh,-0.6288479438888892
mp-13343,TmB4Rh,-0.6331135515277779
mp-13346,CsUAgS3,-1.473375870939896
mp-13348,CsUCuS3,-1.4938933145510056
mp-13349,KUCuS3,-1.5419959195625002
mp-13350,RbUAgS3,-1.3904694133680569
mp-13351,RbUAgSe3,-0.962389921310764
mp-13352,RbUCuS3,-1.4839626678124995
mp-13356,Ba2SrTeO6,-2.7399473044166656
mp-1336,PdO,-0.799161190625
mp-13360,Y5Ge4,-0.882085727962964
mp-13361,Cd2Cu(PO4)2,-2.158801409010989
mp-1337,MoAs2,-0.2528683699999992
mp-13376,SmZnRh,-0.6934511186111111
mp-13378,TbZnRh,-0.7372185024999999
mp-13379,DyZnRh,-0.745779403333333
mp-13380,HoZnRh,-0.7535058824999995
mp-13381,CeZnPd,-0.6361524391666666
mp-13382,CeZnPd,-0.6388067644444446
mp-13383,ScAg(PSe3)2,-0.523790767453869
mp-13384,ErAg(PSe3)2,-0.5514634394538689
mp-13385,TmAg(PSe3)2,-0.5512725072872022
mp-1339,NbIr3,-0.6039784400000006
mp-13392,NdCu,-0.1828330962500004
mp-13396,LiIn2Rh,-0.4182741941666665
mp-13399,Lu(NiGe)2,-0.6035387480000004
mp-134,Al,0.0
mp-1340,Ga2Se3,-0.5844170924062503
mp-13400,Sm(CuGe)2,-0.4750120006666662
mp-13401,Yb(CuGe)2,-0.4061206633333334
mp-13406,LaAgPb,-0.5027718044444445
mp-13407,CeAgPb,-0.3478948511111112
mp-1341,Te2Rh3,-0.2709646339999992
mp-13413,ThCu5Sn,-0.2353203217857137
mp-13415,Ta3B2,-0.6683929743333323
mp-13416,Sc2InNi2,-0.5247766640000002
mp-1342,BaO,-2.831277945625
mp-13427,Sr3Hg2,-0.4465595209999998
mp-13429,La2CdRh2,-0.6604010549999998
mp-1343,NdNi2,-0.3103284266666672
mp-13431,Dy2AlCo2,-0.3930115880000002
mp-13432,Tb2AlCo2,-0.3760431680000003
mp-13434,CaMgNi4,-0.1969802113888891
mp-13435,CeMgNi4,-0.3935888913888886
mp-13436,PrMgNi4,-0.2901439480555557
mp-13444,LiSn,-0.3285034133333333
mp-13445,Rb2As2Pt,-0.4874925849999997
mp-13447,Zn13Rh,-0.132151120357143
mp-13448,Zn11Rh2,-0.2534804265384615
mp-1345,CaP,-1.0935479376190471
mp-13450,HfSb,-0.5412800724999999
mp-13451,Dy2Sb5,-0.637391918928572
mp-13452,BePd2,-0.5083752649999997
mp-13453,BePd3,-0.3845258999999998
mp-13459,NaCdSb,-0.3337727883333334
mp-1346,B6O,-0.8074542223214282
mp-13464,Ca(FeSb3)4,-0.1532414102941171
mp-13466,Sm(SiAu)2,-0.6001960626666666
mp-13467,Ce(GePd)2,-0.7432264609999997
mp-1347,Th3P4,-1.4311002770408163
mp-13472,HfSiRh,-1.077355595833333
mp-13473,Sm(MnSi)2,-0.5895915745287355
mp-13474,LiErGe,-0.7126959966666659
mp-13475,CeSi2Ir3,-0.9376803041666668
mp-13478,SmCoSi2,-0.7685687058333324
mp-13483,PrBPt4,-0.7685492305555558
mp-13486,LaCoCu12,-0.0663637235714286
mp-1349,SrPt2,-0.8524499638888882
mp-13490,ErAl3Ni2,-0.6611639527777784
mp-13495,ZrPd,-0.6534290399999998
mp-135,Li,0.0051268933333332
mp-13500,Sm3Si2BO10,-3.5923969143489582
mp-13501,ErCoC2,-0.3590787712500001
mp-13502,TmCoC2,-0.3651601295833337
mp-13503,ScZn2,-0.3459312350000001
mp-13504,CeAl4Co,-0.4888385366666661
mp-13505,CeMg2Ni9,-0.2856535809722225
mp-13508,Er4In(NiGe2)2,-0.7713634736363637
mp-13510,Ho4In(NiGe2)2,-0.77595742
mp-13511,Tm4In(NiGe2)2,-0.763933013030303
mp-13512,CaNiGe2,-0.5367636837500003
mp-13513,SrNiGe2,-0.5223889329166669
mp-13514,NdBO3,-3.474727147916666
mp-13516,TmAl3(BO3)4,-3.262583599583333
mp-1352,ZrN,-1.8700816361899992
mp-13520,Na2ZnGe,-0.155097735
mp-13525,HoInIr,-0.7095626255555558
mp-13532,La2ZnNi2,-0.3587418390000003
mp-13534,LaZnNi,-0.3900023766666665
mp-13535,Tb2ZnNi2,-0.4578766850000008
mp-13536,TbZnNi,-0.4563519683333336
mp-13538,KPrSiSe4,-1.2451267181964287
mp-13541,Sr2Mg(BO3)2,-3.1968054828030303
mp-13542,ZrGeTe4,-0.5090327858333333
mp-13545,BaIrF6,-2.7948168783925
mp-13546,Y2Ge2O7,-3.053271740719698
mp-13549,CeZnAu,-0.5735146908333331
mp-13551,ScTeO3F,-2.8533107785316667
mp-1356,Sb2Pd,-0.3524172466666666
mp-13563,YP5O14,-2.830460911184525
mp-13567,CeS2,-2.1644428562500004
mp-13568,NdS2,-2.1808174979166672
mp-1357,P3Rh,-0.5841098114285712
mp-13570,Mg(ScGa)2,-0.5091537346666662
mp-13572,ScSiPt2,-1.1398092237500004
mp-13573,Sc5Si7Pt9,-1.1101340038095229
mp-13579,ErGePt,-1.1347968366666663
mp-1358,DyIr2,-0.8249792316666659
mp-13580,LuGePt,-1.1214092074999993
mp-13583,Sc2Si2Ru,-0.8889759959999992
mp-1359,NbIr,-0.5196198599999988
mp-13593,BaZnSnS4,-1.4251925491071429
mp-13595,Rb2UF6,-3.5683007246822225
mp-13596,K2ZrF6,-3.680075787571111
mp-13599,NaSn2F5,-2.72018907699375
mp-13602,Cd3(AsO4)2,-1.6793689992307692
mp-13603,CdB4O7,-2.6629101180902786
mp-1361,IrSe2,-0.3418900048958336
mp-13610,ZnPbF6,-2.4197477165175005
mp-13613,K2Mg2Be3F12,-3.5873017126024567
mp-13614,Rb2Be3Cd2F12,-3.162368972330526
mp-13619,ScSi7Rh3,-0.6553670868181805
mp-13620,ScSi7Ir3,-0.6908723300000009
mp-1362524,LiV3Zn2O8,-2.3207269636904764
mp-1362593,Li2Mn3TeO8,-2.0066229982270607
mp-13627,Y3ReO8,-3.3023015404166665
mp-1363,Na2Au,-0.2899689266666667
mp-13630,Rb3NaBe2F8,-3.319454935501429
mp-13634,Cs2LiAl3F12,-3.6843136626004847
mp-1364,YNi,-0.4321575116666665
mp-13641,TiCdO3,-2.69148760975
mp-13643,Er2Ge2O7,-3.085861110568182
mp-13649,Cs2AgF4,-2.354154617707915
mp-13654,Y3Sb4Au3,-0.8204616575000003
mp-13658,RbNO3,-1.4898827917259994
mp-13660,Ca4Sb2O,-1.73154289875
mp-13664,Sr2Ta2O7,-3.511312623825758
mp-13666,Ti(PS3)2,-1.0269236573214282
mp-1367,Mg2Si,-0.1552432338888885
mp-13673,NaSiAu3,-0.2741331992500001
mp-13674,NaGeAu3,-0.2482367105000001
mp-13675,CdPd3O4,-0.9409605862499992
mp-13676,TlPO4,-2.070562288928572
mp-13679,PdF3,-1.5982387558925
mp-1368,Zn8Cu5,-0.0992220396153848
mp-13682,PdS2,-0.7134028562499998
mp-13686,Nb5Si3,-0.6799411712500003
mp-13687,Cs2KAgF6,-2.42031756293354
mp-13688,Ge2Mo,-0.1698876775000002
mp-13694,PrCuO2,-2.592448606875
mp-1370,CsSi,-0.061037876153017
mp-13703,Al4CO4,-2.6019805938888902
mp-1371,Sn3Pd,-0.3064428337499993
mp-13718,NaCd4(PO4)3,-2.3113168917857143
mp-1372,Cd3As2,-0.1007453345000001
mp-13725,Li3PO4,-2.7611397360714287
mp-13726,Na3SrLaZnSi6O17,-3.1299314048419538
mp-13738,CsCd(PO3)3,-2.557766991956808
mp-1374,Zr5Re24,-0.2198988741379312
mp-13740,AgAsS2,-0.4421767490625008
mp-13743,K3GaO3,-1.9028323125357147
mp-13744,Rb3GaO3,-1.8364839416071423
mp-13745,Na5FeO4,-1.69265641075
mp-13748,Cs3SiF7,-3.34703530519301
mp-13749,K9Ni2O7,-1.2673963593472215
mp-13753,SmP5O14,-2.831601524184525
mp-13755,BaNa(PO3)3,-2.882270783354592
mp-13758,Nd4Re2O11,-3.155021652867648
mp-13765,Ce3Co11B4,-0.3832885007407406
mp-1377,ThCu2,-0.2010876299999999
mp-13772,Li3Pr2(BO3)3,-3.09676803742647
mp-13774,NaNdSiO4,-3.301263695595238
mp-13775,Gd2Si2O7,-3.6397635748863646
mp-13791,BaNaNd(SiO3)3,-3.3510927970833326
mp-13792,KTaP4O13,-2.802488349791353
mp-13797,K2NaCuF6,-2.602987314814
mp-13798,K2NaTlF6,-2.720461105814
mp-1380,Zn3Ru,-0.1517354437500002
mp-13800,Cs2NaTlF6,-2.743354735800207
mp-13801,Tl2Pt2O7,-1.160741048068182
mp-13803,Nb2Hg2O7,-2.169097202613637
mp-13810,Na2TiZn2SiO7,-2.637817071153848
mp-13811,Ba2MgUO6,-3.469780218083333
mp-13815,Rb2NaErF6,-3.6243174217139993
mp-13816,Cs2NaErF6,-3.628182533800208
mp-13819,KAgF3,-2.1368146209806667
mp-1382,Ce3S4,-2.4028456075
mp-13820,Cd3SiO5,-2.0548556895833325
mp-13829,TlCu3S2,-0.432620602708333
mp-1383,UCo2,-0.245158838333334
mp-13831,BaCdGeS4,-1.3744380626785713
mp-13836,U(RhO3)2,-2.253247396388888
mp-13840,Ho3ScO6,-4.03200090825
mp-13841,IrF4,-1.737159119952
mp-13843,Li2TeO4,-1.9585335015476195
mp-1385,CeZn2,-0.2952445600000004
mp-13852,Ge3N4,-0.2616138549314288
mp-13853,P3Ir,-0.6492043733035704
mp-13854,B3Ru2,-0.331677655
mp-13859,K3SiF7,-3.35377504203
mp-1386,HoPb3,-0.2586540724999997
mp-13861,HfB4Ir3,-0.5324901966666662
mp-13863,BaGeO3,-2.706277459249999
mp-13868,PdF4,-1.5227003799519998
mp-1387,AlV3,-0.1354063399999994
mp-13871,P2Pt5,-0.3771940495918368
mp-13873,Ca(GaSe2)2,-1.0031299066964283
mp-13875,Al8(Pb3O7)3,-2.529604014835526
mp-1388,DyRh2,-0.7623171299999996
mp-13898,Cs2NaInF6,-3.021670461800207
mp-139,Sr,0.0055813533333335
mp-13900,Sr(CuO)2,-1.6690524338333332
mp-13903,ZnSnF6,-2.7743195690175
mp-13906,CuSnF6,-2.4413141133925
mp-13907,CdSnF6,-2.7441965283925
mp-13909,K4Sn23,-0.1352291532222219
mp-1391,Ag2F,-0.8661713176188887
mp-13910,Ba(AgGe)2,-0.3341741153333331
mp-13911,Ca(ZnGe)2,-0.326729435
mp-13914,LiCo2Ge,-0.2236353366666668
mp-13915,LiNi2Sn,-0.2783921191666669
mp-13916,LiCaSi2,-0.4115582416666661
mp-13917,LiCaGe2,-0.5172769391666665
mp-13918,Sr(GeAu)2,-0.4934419793333333
mp-1392,ZnP2,-0.2445198432142863
mp-13920,Ba(ZnSn)2,-0.4228935500000002
mp-13922,Ba2Ge,-0.4940026283333332
mp-13923,SnPS3,-0.7501799930892858
mp-13925,Cs2NaYF6,-3.60198214713354
mp-13926,Rb2NaYF6,-3.594970948047333
mp-13929,Ba2SmReO6,-2.989584488583334
mp-1393,Sn4Au,-0.0885915760000003
mp-13931,Ba2TbReO6,-3.0421309352499994
mp-13932,Ba2DyReO6,-3.04471150225
mp-13933,Ba2HoReO6,-3.05369366725
mp-13934,Ba2TmReO6,-3.0814708565833326
mp-13935,Ba2YbReO6,-3.0030010249166663
mp-1394,Rb2O,-1.13509305875
mp-13944,Li3AlN2,-0.9753059153766662
mp-13946,Rb2ZrF6,-3.680464498015555
mp-13947,Rb2HfF6,-3.773455835793333
mp-13948,Cs2HfF6,-3.7860344770002303
mp-13949,Cd(GaTe2)2,-0.3820574485714282
mp-1395,VRu,-0.2344813050000009
mp-13954,Rb2GeF6,-3.061301829682222
mp-13955,SmSi2,-0.5690333144444443
mp-13956,Ag2PSe3,-0.1041872197532243
mp-13962,HfSiSe,-1.0001344057812496
mp-13963,HfSiTe,-0.7203808400000007
mp-13964,HfGeTe,-0.6667978500000006
mp-13967,Nb5(CuSi)4,-0.5006224507692314
mp-13971,Nd2SeO2,-3.2882712709687496
mp-13972,Sm2SeO2,-3.3332202943020848
mp-13973,Gd2SeO2,-3.3474728089687504
mp-13974,Ho2SeO2,-3.4127468089687496
mp-13975,Er2SeO2,-3.41948202696875
mp-13978,Rb2ThF6,-3.9016498469044447
mp-13979,Ca2Nb2O7,-3.30835893284091
mp-13982,CdCu2GeS4,-0.7382443490625001
mp-13983,ZnPdF6,-2.0042110652675
mp-13984,CdPdF6,-1.9779160021425
mp-13985,Li2PdF6,-2.386254104497037
mp-13986,Li2PtF6,-2.4386402700525927
mp-1399,AlAu,-0.3940118275000004
mp-13992,Cs2Pt3S4,-1.034171064262452
mp-13993,Ti3NiS6,-1.590958949875
mp-13994,Ti3NiS6,-1.5908012193750003
mp-13995,Hg2GeO4,-1.285383594285714
mp-13997,RbAlF4,-3.65812408721
mp-13998,Na5AlO4,-2.09366522075
mp-14,Se,0.0071063809895832
mp-1400,HfW2,-0.1692044033333341
mp-14001,Ba4SiAs4,-1.0002500166666668
mp-14002,Ba4GeAs4,-0.9635178259722224
mp-14005,KRuO4,-1.590789179666667
mp-14006,BaGeF6,-3.4258821308925
mp-1401,ZrZn2,-0.2911653066666666
mp-14011,Al(PO3)3,-2.842342625247253
mp-14015,HoMn12,-0.0097928381432366
mp-14017,K3Sb,-0.403127081
mp-14018,K3As,-0.3219534147500003
mp-14019,NiB,-0.2420949341666665
mp-14023,Na3Li3Sc2F12,-3.615890609214
mp-14024,Zr3O,-1.5486654465624996
mp-14025,Zr2CuS4,-1.687687796785715
mp-14026,Ca2Ta2O7,-3.495106428068182
mp-14029,AgMoPO6,-2.029240070628307
mp-1403,Sm2S3,-2.4639340312083333
mp-14030,Na2LiY(Si2O5)3,-3.200668403349999
mp-14036,KRb2RhF6,-2.648788572514
mp-14037,NaTl2RhF6,-2.237406281214
mp-14038,Rb2NaRhF6,-2.662624340714
mp-14039,K2NaRhF6,-2.6613106208140005
mp-1404,CdAu,-0.1834811525000002
mp-14047,Al2Cd3(SiO4)3,-2.771076803125
mp-1405,TbGe,-0.8778577025000001
mp-14052,Ca3In2(SiO4)3,-3.08729989525
mp-14058,KMg(PO3)3,-2.8166201827355444
mp-14065,Na2TiZn2GeO7,-2.366199464423077
mp-14069,CsAlO2,-2.857446055107758
mp-1407,Rh3Se8,-0.3900552135227267
mp-14070,RbAlO2,-2.868813469999999
mp-1408,MgHg,-0.2169256266666666