material_id,pretty_formula,formation_energy_per_atom
mp-3224,Mn7SiO12,-2.2507045768403104
mp-3228,HgSO4,-1.591975295520833
mp-32310,Ba3Ta2NiO9,-3.142525410083333
mp-32311,Re2NiO8,-1.998400076590909
mp-3236,Pr2SO2,-3.4593795851250007
mp-3237,Na2CuF4,-2.5229937435371426
mp-3239,Er(CoSi)2,-0.835597868
mp-3241,Sr(CuGe)2,-0.326325847333333
mp-3245,SnP7Au3,-0.1011537836363636
mp-3247,Cs2TiS3,-1.7061112600395116
mp-3248,TbAsO4,-2.857053535
mp-3250,Ni2SbTe2,-0.2603597139999998
mp-3252,SrTe3O8,-1.889303499722222
mp-32523,LiV(PO3)4,-2.667037006997353
mp-32528,Li3V3(PO4)4,-2.7225819230494497
mp-32531,Ba2V3O9,-2.826759734732142
mp-32533,Na2W4O13,-2.21027767506579
mp-32565,Tb4H9,-0.7581913944292308
mp-3257,KAuSe5,-0.3358716867455357
mp-32578,Ce2Se3,-1.823915055406249
mp-32581,Pr2Te3,-1.45850631725
mp-32590,U4N7,-1.6593172194690915
mp-32606,Ba3P2,-0.9820171124285716
mp-3261,Dy(BO2)3,-3.208171224
mp-32613,Ce5O9,-3.9457227297321418
mp-32616,Ga2S3,-1.059160785875001
mp-3262,Tm(CoSi)2,-0.8331396766666664
mp-32633,Dy6Se11,-1.6671184397518384
mp-32635,Sr3P2,-1.0409461314285715
mp-3264,Th(NiGe)2,-0.6657184240000007
mp-32662,WO3,-2.170812473437499
mp-32669,Ag2S,-0.2711181515972226
mp-3267,TlSb5S8,-0.6487724292857138
mp-3268,YbB2Ru3,-0.3564468622222219
mp-32686,CoO2,-1.1613279774999998
mp-32688,Nd2Se3,-1.8812543711562493
mp-32689,Pr2Se3,-1.88571093515625
mp-3269,NaTh2F9,-4.270361450059167
mp-32697,Y10H21,-0.7843167959468819
mp-3271,Ti3AlC,-0.5921260019999991
mp-3273,Si5P6O25,-2.883032927435516
mp-3274,NiGePd,-0.4639859016666665
mp-32742,U16N25,-1.636364273890243
mp-3275,PrFeSi2,-0.6399641262499998
mp-32755,La2Te3,-1.60421792175
mp-3277,BAsO4,-2.1425629505555546
mp-32777,WO3,-2.1701577517708324
mp-3278,Pr(SiPd)2,-0.937217201
mp-32780,AuCl,-0.51246799288
mp-32798,La2Se3,-2.0301016791562505
mp-328,Zr2Ni,-0.321687288333333
mp-3281,Al5BO9,-3.375783830972223
mp-3283,RbNbO3,-2.84821546325
mp-32833,Ho6Se11,-1.6526131012224266
mp-3284,CeSi2Pt,-0.9994850299999998
mp-3285,Na2Ta4O11,-3.20016636875
mp-3286,Ce(AlZn)2,-0.3747105469999997
mp-32861,Rh3Se8,-0.3825657567045452
mp-32873,Hf23Se25,-1.1579086080957035
mp-3288,CsNO2,-1.3750150348694252
mp-32880,CuBr,-0.2494231899999999
mp-32884,Ag2S,-0.2692455782638892
mp-32887,HfTe2,-0.822735633333334
mp-3289,LaMgNi4,-0.2954880913888894
mp-3291,AgTe4Au,-0.0743117238888887
mp-3292,Tb(CoSi)2,-0.8270941239999999
mp-3296,Yb(GePd)2,-0.7217700273333335
mp-32967,Zr7Sb4,-0.67022517
mp-3297,Li10Zn4O9,-1.99795384643116
mp-32983,Nb3S5,-1.520970334453125
mp-3299,Sr(FeP)2,-0.8240558527619051
mp-33,Ru,0.0
mp-3301,Dy(SiPd)2,-0.945801759999999
mp-3303,Ce(AlGa)2,-0.4296131129999992
mp-33090,V2N,-1.099133669682222
mp-331,ScAl,-0.4463036574999997
mp-3311,SrUO4,-3.6798223940277786
mp-3312,Cs(SbSe2)2,-0.5081335074722908
mp-33137,TcO2,-1.8935674408333325
mp-3315,CaPd3O4,-1.524038861249999
mp-3316,BaCeO3,-3.598604264749999
mp-3317,SmRhO3,-2.5434080174166667
mp-3318,Na2BeF4,-3.290043692465715
mp-3319,Mg(RhO2)2,-1.6616604040476182
mp-3324,Nb2SnO6,-2.758265093611112
mp-3325,Ce(NiGe)2,-0.6691260530000008
mp-3328,Ho2Al3Si2,-0.5436882457142858
mp-3329,Tb(NiGe)2,-0.6550158920000001
mp-33318,Ca11Al14O32,-3.45750419254386
mp-3332,NaCrSe2,-0.8102780899218747
mp-33332,Co5SbO8,-1.5735728196428571
mp-33338,LiGa3Te5,-0.4538968046296294
mp-3334,Tm2Sn2O7,-3.0471516927651523
mp-33363,LiYS2,-2.1713095678125
mp-3337,Ti6Si7Ni16,-0.703875929137932
mp-3338,NaGaO2,-2.23169507875
mp-334,LaF3,-4.5130097533925
mp-3340,TaAlCo2,-0.4487739225
mp-33436,Tl(WO3)6,-2.1333187141
mp-3344,CeAlRh,-0.8566641549999995
mp-33444,Sr5(BiO4)3,-2.3919427764166663
mp-3345,Cu3AsS4,-0.5269176503125008
mp-3346,HoZrSb,-0.7857594183333335
mp-3347,Be2SiO4,-3.1856279480952376
mp-3348,LiBIr,-0.5137866274999988
mp-3349,Sr3Ti2O7,-3.5019945665625003
mp-33498,Rb2CrCl4,-1.895330476148572
mp-335,BaGa4,-0.4510552060000002
mp-3352,ErSiPd2,-0.99488032875
mp-3354,Ho3(GePd)4,-0.8994343209090904
mp-33554,Na3GdCl6,-2.354048573456
mp-33569,Sr(LaSe2)2,-2.048863716577381
mp-33581,Ba9Nb10O30,-3.2018903368877547
mp-3359,Ba2SnO4,-2.736454302142857
mp-33606,Ba(PrSe2)2,-1.925247825625
mp-3361,Ba3Al2F12,-4.094839956722353
mp-3363,Sc2Ni2Sn,-0.6157854389999997
mp-33667,LiDyS2,-2.171000234479167
mp-3368,LiNb3O8,-2.990837729305556
mp-3370,Y2Sn2O7,-3.026222006856061
mp-3372,Rb2SO4,-2.3687119697321424
mp-33723,BiTeBr,-0.5045470433333333
mp-3374,Nd4Au2O9,-2.7790779829166667
mp-3375,Nd4Ge3Rh4,-0.8877634109090903
mp-3378,SrHfO3,-3.822132465083334
mp-3379,K2SbF5,-2.93870847024375
mp-33803,Nd2Mo2O7,-2.926630370795454
mp-3384,Er3Al5O12,-3.7214087285000006
mp-3385,Sr(PPd)2,-0.8267608747619051
mp-33857,CrSbO4,-2.13227797125
mp-33872,Na7Zr6F31,-3.756395665156592
mp-3388,U(SiRu)2,-0.6494780480000003
mp-3390,Y(CuSi)2,-0.5977082986666659
mp-3392,Ba(TlHg)2,-0.320764432
mp-3393,Sr3Al2O6,-3.3513677502651515
mp-33940,Mg2PtO4,-2.1988882609523808
mp-3395,SrSeO3,-2.325424152552084
mp-3397,Ba2TiO4,-3.4078941085714285
mp-3398,Ho2Ni2Pb,-0.5252015240000005
mp-3400,Lu(MnGe)6,-0.3252893767639259
mp-3402,UTeN,-1.344371430793333
mp-34022,Mg2SnO4,-2.6837614673809527
mp-34034,Ba8P5Br,-1.1628987316326536
mp-3404,RbSO3,-2.219477559208334
mp-3405,NaAl11O17,-3.370387635387932
mp-3407,TlCr5Se8,-0.5343099684821421
mp-34078,H3ClO,-1.234163452074
mp-3408,CeAlO3,-3.619544740749999
mp-34081,NaYF4,-3.989639601348889
mp-341,PbF4,-2.2221744109519994
mp-3411,Tl(MoSe)3,-0.4860515360044642
mp-34121,LiSbS2,-0.9967424894791668
mp-34126,Cu4SnP10,-0.1241792477142856
mp-34127,K2NaAs,-0.3704529227500002
mp-34139,Mn2CrO4,-2.203980866604336
mp-3414,AgSbF6,-2.383614870371667
mp-34141,Sr(LaS2)2,-2.560505707738096
mp-3415,Yb(SiRu)2,-0.8086702973333331
mp-3416,Na3AlF6,-3.415316495714
mp-34169,Zn(InSe2)2,-0.592157042053571
mp-3419,RbAuF4,-2.0907994878766663
mp-342,SmTe,-1.3822648966666664
mp-34202,Bi2Te3,-0.2355520820000002
mp-34212,SrRuO3,-2.171588342083333
mp-34232,K(AsRh)2,-0.6217036925999991
mp-34234,Al2NiO4,-2.751905476904762
mp-3427,LiAlO2,-3.0905307529166666
mp-34278,K(WO3)6,-2.21378456582
mp-34291,Zr3InF15,-3.781453869623684
mp-34292,Tl9SbTe6,-0.2868711365625001
mp-34293,CsTaN2,-1.1020472356727584
mp-343,PrN,-1.4730108836899998
mp-3432,ScNiSb,-0.8995265266666669
mp-3433,YMgNi4,-0.3864754211111112
mp-34337,H4NCl,-0.8653341933533328
mp-3435,Nd3Cu3Sb4,-0.7683953369999997
mp-34361,Tl9BiTe6,-0.3092599612499995
mp-3437,Ce(CoSi)2,-0.7659209389999994
mp-34381,H4IN,-0.6150319536433327
mp-3439,SbPO4,-2.365487059761904
mp-3441,Y(SiRh)2,-1.134574124666667
mp-34412,Sr(La2Se3)4,-2.025670797371032
mp-34418,AgPF6,-2.559858412380595
mp-3443,Cd(GaO2)2,-2.04679491
mp-3444,ErTaO4,-3.753854577499999
mp-3446,SrTm2O4,-3.816816849047619
mp-34460,Ag3AuS2,-0.2865597643750004
mp-34467,Zn(GaS2)2,-1.1025509625
mp-34472,Na(Nd2Se3)4,-1.836537064196428
mp-34477,LiSmS2,-2.1285738465625
mp-3448,KMgF3,-3.5658730069806666
mp-3453,Er(MnGe)6,-0.3262246929177719
mp-3455,Er(NiP)2,-1.0061858354285718
mp-3456,Tb(CuSi)2,-0.601439448
mp-3457,ErP5O14,-2.833589864517858
mp-34578,Ba4Y3F17,-4.344923899801251
mp-34579,Na3HfF7,-3.634564597120909
mp-34580,Er3Pb4F17,-3.608414452509583
mp-3462,TmSnAu,-0.8357669777777778
mp-3464,FeSiRu2,-0.3645122087499999
mp-3465,LaB2Rh3,-0.670889801944444
mp-3466,PrAlO3,-3.66793351275
mp-3468,NaAsO2,-1.8752984809374995
mp-34688,TiO2,-3.503894180833333
mp-3469,ZrNi2Sb,-0.5577382937500008
mp-3470,MgSiO3,-3.239606666916667
mp-3471,La2Ni5B4,-0.4764624321212122
mp-34713,Na(Pr2Se3)4,-1.8422552551488087
mp-3472,PbSO4,-2.0315660571875007
mp-3474,LaCuO3,-2.43266353375
mp-3476,P2PbO6,-2.4976632525992053
mp-34763,NaAlB14,-0.1456074682291657
mp-34787,Ag7NO11,-0.5393297736559646
mp-3479,CaAl9Ni,-0.2412387477272724
mp-348,TmPd,-0.9500803266666668
mp-3481,KSnAs,-0.4022903376666669
mp-34842,Na3UO4,-2.7500678925000006
mp-34857,KNO2,-1.396356041969999
mp-3486,KSnSb,-0.3400214610000003
mp-3488,Na2Ti3O7,-3.174122538229168
mp-3489,Nd(FeSi)2,-0.6246228919999993
mp-3491,NbSbO4,-2.533330212916667
mp-34932,CaHN,-0.9165330853333328
mp-3494,CeGa3Pd2,-0.7279438974999994
mp-3498,HfGaNi2,-0.5572963750000008
mp-35,Mn,0.0
mp-350,Zr5Te4,-0.8571636533333328
mp-3502,Zn2Te3O8,-1.6186016249999993
mp-3503,Li6WN4,-0.9231027954109084
mp-3507,Lu(SiPd)2,-0.9006170820000001
mp-35082,BH6N,-0.4431448040541665
mp-351,SiNi,-0.5008176612500002
mp-3513,Dy2Al3Si2,-0.5485411757142852
mp-35143,BaNbS3,-1.8433768148750005
mp-3515,Y(CoB)2,-0.5612694919999995
mp-35152,Sr2H5Rh,-0.652619709554167
mp-3516,UTeO5,-2.715262988392856
mp-35162,MnIn2O4,-2.009628185802167
mp-3519,ZrSO,-2.9060046022916666
mp-352,HfO2,-4.030009485
mp-3520,Y2SiO5,-3.801682657864583
mp-3521,NaBF4,-3.254945420515556
mp-3522,MgCuSb,-0.2420916761111105
mp-35220,PHN2,-0.6001293029878569
mp-35236,Ga2NiO4,-1.96528745
mp-3524,LiPN2,-1.0020215262495231
mp-35249,Sm2Hf2O7,-4.007673987765153
mp-3525,Sb2Te2Se,-0.1904007144687504
mp-3526,ErInPt,-0.9946174088888892
mp-35267,Al5CuS8,-1.3706039775000003
mp-3527,Na3AgO2,-1.279991886805555
mp-35276,K(FeAs)2,-0.2872154846
mp-3529,K3VS4,-1.5042493933125003
mp-353,Ag2O,-0.3276714509722224
mp-3531,Ca2P2O7,-3.22094050099026
mp-35311,ZnCrF6,-2.6690739765175
mp-3532,CrAgSe2,-0.3613297045052075
mp-3535,RbCeS2,-2.1079215196875
mp-3536,MgAl2O4,-3.3835339133333338
mp-3538,Hg3TeO6,-1.0328669017499998
mp-35388,LiSmSe2,-1.658625367421875
mp-3540,Li2SnO3,-2.2351802078472223
mp-3541,CeNiGe2,-0.7284083812500004
mp-3545,CeMgSi2,-0.5253315220833326
mp-3546,Tb(Al2Fe)4,-0.4299108384615391
mp-355,Nd5Si4,-0.6865139105555558
mp-3551,TbAgTe2,-0.9206268245833336
mp-3552,Li2Si2O5,-3.0186699327314823
mp-3553,KTeAu,-0.6780174026666668
mp-35539,Zn2GeSe4,-0.5103217027678575
mp-3555,LaSiIr,-0.9975254999999996
mp-3556,Tm2SO2,-3.664089564458332
mp-35596,Fe2NiO4,-1.6824620357142843
mp-356,Nd2Co17,-0.0516123823684204
mp-3563,Ba5Nb4O15,-3.281113986614582
mp-3564,BaSc2O4,-3.698379990714286
mp-35644,Sr3FeN3,-0.7586929317342849
mp-35647,Zn2PtO4,-1.4369559442857138
mp-35659,HgPbF6,-2.0837363383925003
mp-3566,Ce(SiRu)2,-0.885578104999999
mp-3569,Nd(Sb3Os)4,-0.1610093911764703
mp-35690,Co5RuO8,-1.4101032182142856
mp-357,SmPd3,-0.825062565833333
mp-3570,NdPPd,-1.2427125878571428
mp-3572,Gd2(MoO4)3,-2.708293343235294
mp-35730,BaUO3,-3.4956383487500005
mp-35739,ZrUN2,-1.72469531494
mp-3575,Ca3(BO3)2,-3.29819680310606
mp-3576,HfGaCo2,-0.4920973775000004
mp-35769,Sr4Lu3F17,-4.392850387579028
mp-35777,Mg(InTe2)2,-0.4793178061904761
mp-35785,Y2CdS4,-2.04874685702381
mp-35799,Hf2Bi2O7,-2.952861612159092
mp-3582,Mg(BC)2,-0.1478055562500003
mp-3583,U2AsN2,-1.462004314952
mp-3584,NdPO4,-3.4603830626785714
mp-35841,Li2CuGe,-0.3211301883333335
mp-3585,La(SiIr)2,-1.0562861909999994
mp-3587,Sc(SiNi)2,-0.7961919690000002
mp-3589,BPO4,-2.7748353919841264
mp-35906,Y(AgCl2)3,-1.519264804289334
mp-35907,La5TlTe8,-1.477998676071428
mp-3591,NdBRh3,-0.7105258636666676
mp-3592,KAuS5,-0.8094114026607144
mp-3594,Gd3GaO6,-3.52345406475
mp-3595,ZnSiAs2,-0.1976554087499993
mp-3597,BaRuO3,-2.1907825077499994
mp-35986,Ba4Nd3F17,-4.338665947509584
mp-3601,BaUS3,-2.118702035375
mp-3602,YAl4Ni,-0.5571185405555555
mp-3603,Ce3(BN2)2,-1.5638715912429622
mp-3605,Th(CoGe)2,-0.5504060379999999
mp-36052,ScUS2,-1.9112702828124988
mp-36066,PNO,-1.4929434640671435
mp-361,Cu2O,-0.6495905054166661
mp-3611,Dy2Hf2O7,-4.0242528167045455
mp-36111,LiMgP,-0.7632177761904764
mp-3612,NbSbO4,-2.53304388125
mp-3613,NaErS2,-2.1822631203125
mp-3614,KTaO3,-3.08678938735
mp-36165,Na10Zn4O9,-1.6453357287499997
mp-3618,Sc2FeSi2,-0.775894440999999
mp-362,Ni3S2,-0.636190251250001
mp-36216,Ag2S,-0.2687691432638892
mp-3622,Na2PdF4,-2.388846164965714
mp-3623,MnAlCo2,-0.3692580924137933
mp-36235,Na(ScI3)2,-1.2470909355555548
mp-3626,SrZrO3,-3.663230366083333
mp-36262,BrO2F,-0.6545905884224998
mp-363,NbGe2,-0.3470367188888887
mp-3630,HoInAu,-0.7367991311111111
mp-36310,Al2CrS4,-1.245794774642857
mp-36329,SrUO4,-3.679261066944445
mp-3633,Er(Al2Fe)4,-0.431662771538461
mp-3635,LiBO2,-2.745634286875
mp-3637,YOF,-4.243954181924445
mp-3638,Cu2P2O7,-2.03871349508117
mp-36381,Sn(PS3)2,-0.7110930295436515
mp-36383,Ag3(PO4)2,-1.617733148241758
mp-364,AlRh,-1.10165163
mp-3640,Nb6Si7Ni16,-0.5946599701724133
mp-3642,ScCuO2,-2.7324906831249995
mp-3647,LiGaS2,-1.3575781107291665
mp-3648,Zn2CuAu,-0.1469262800000002
mp-365,MgB4,-0.1395027268333329
mp-3650,HfCu2Te3,-0.4500634416666666
mp-36508,SnHgF6,-2.4341057221425
mp-3651,Nd(SiRh)2,-1.0992358600000005
mp-3652,Ta9(FeS3)2,-0.9808739846323532
mp-36529,Na3(WO3)10,-2.1862760679651148
mp-3653,Mg(SbO3)2,-2.237864706759259
mp-3654,RbCaF3,-3.737058998214
mp-3657,TiCo2Si,-0.6765520462500003
mp-36582,NaHS,-0.949443148915
mp-3660,LiB3O5,-2.8193266347685184
mp-3664,NdTlS2,-1.7824039515625003
mp-36641,Cd(Ga3Te5)2,-0.3420025894117645
mp-3666,LiTaO3,-3.136345967083333
mp-3667,P2S2O3,-1.725609913163266
mp-3668,CdGeP2,-0.0974825292857142
mp-367,Sm4Sb3,-1.0471767097619045
mp-36734,CeThO4,-4.1511694666666665
mp-36751,In5AgS8,-0.8901374705952385
mp-3676,MgCu4Sn,-0.1139591655555551
mp-3677,MgSiN2,-1.3672727788983323
mp-3678,Tb(SiRu)2,-0.917012778
mp-3679,NiSbS,-0.5362612852083336
mp-3682,KCuF3,-2.377036956314
mp-3683,Ho3(CuGe)4,-0.6290757245454547
mp-36836,Sr4Ru2O9,-2.4300227200833344
mp-3686,YbBRh3,-0.6245535469999985
mp-3688,Er2Sn2O7,-3.0438692167045462
mp-36884,Mn2SnO4,-2.085473078747192
mp-369,TbAl3,-0.4320558449999995
mp-36903,KNO3,-1.5051677668259995
mp-3694,NdPS4,-1.5059211687202383
mp-36966,NaSm2Se3,-1.727856503116319
mp-3698,SrAlSi,-0.3996420105555553
mp-36988,Ca(AlSe2)2,-1.2018206870535713
mp-37,Th,0.0
mp-3700,LiYF4,-4.05947384496
mp-3701,Sc(Al2Fe)4,-0.4257471849999993
mp-3706,Ho2Co12P7,-0.8068326204761893
mp-3707,CaGe2O5,-2.51899956453125
mp-3709,Tb(CoGe)2,-0.6180549479999996
mp-37091,Sr(AlTe2)2,-0.8345983223809519
mp-371,La3Tl,-0.2405024737500003
mp-3710,HoBRh3,-0.8194372596666668
mp-37108,Sr(NdS2)2,-2.45843192202381
mp-3715,CoGeTe,-0.2269334637499997
mp-37153,AgAsF6,-2.227921597559167
mp-3716,TbNiSb,-0.9025472516666668
mp-37167,U12Rh4Se31,-1.029140943886304
mp-3717,LuBRh3,-0.8469826796666652
mp-3718,ThTeO,-2.859294075416668
mp-3719,Rb3NbS4,-1.5660871431250003
mp-372,VPt3,-0.4350572649999993
mp-3721,SrHfO3,-3.816070373083333
mp-37216,CdPbF6,-2.3859162621425005
mp-37255,Na2RuO3,-1.6382999414583328
mp-3726,Li2GaPt,-0.6653205308333336
mp-37297,U2PS,-1.3561116666741082
mp-3731,LiNbO3,-2.908694976083333
mp-37312,Na(La2Se3)4,-1.980759360863095
mp-3732,Ti2CS,-1.418472769531249
mp-3733,BeTl2F4,-2.723872651037143
mp-3734,NdSi2Ni,-0.8249574337499999
mp-3736,ZrAlCu2,-0.3528553724999996
mp-3739,NdCuSe2,-1.238272656171875
mp-37436,Li7SbO6,-2.166736694940476
mp-3744,NaNbO2,-2.5380026581250004
mp-37458,Na2HF4,-2.33327643334
mp-3747,Ti3AlC2,-0.7628639316666673
mp-3748,AlCuO2,-2.424902193125
mp-37480,LiSbSe2,-0.6369240378385417
mp-375,UO3,-3.6236493034375
mp-3751,AlTlF4,-3.3029593966266666
mp-3756,SmTaO4,-3.7068045255555546
mp-376,PrSn3,-0.5204645687499996
mp-37605,LiNdSe2,-1.6417022053385415
mp-37614,Al2NiO4,-2.757669639999999
mp-3762,VCu3S4,-0.9370250578125
mp-3764,Te3P2O11,-2.019115740368303
mp-3765,Sr(PO3)2,-3.004223441256613
mp-3769,ErBRh3,-0.828375867666665
mp-37695,Ag7NO11,-0.5444391615507009
mp-377,LuRh,-1.0244636499999995
mp-3771,MgTiO3,-3.3789166224166665
mp-3772,Cd(GaSe2)2,-0.6233276699107141
mp-37722,KBH4,-0.4934652943022216
mp-37741,Ba(LaSe2)2,-2.0346026791964285
mp-37747,LiHS,-1.0393060069705555
mp-3775,Na2SiF6,-3.3974622539414807
mp-3776,Er2Mo2C3,-0.3778894814285718
mp-3777,BaSiN2,-1.319114801815
mp-3778,Mg3(Al9Cr)2,-0.0998822197826081
mp-378,ErSi,-0.8252474325000003
mp-37808,Sc(TiN)9,-1.8699532724431576
mp-3782,Nd3Sb5O12,-2.6155075517499995
mp-37829,La5TlSe8,-1.8623122974107136
mp-37839,Li7RuO6,-1.98887417529762
mp-3785,TlGaTe2,-0.3694082662499998
mp-37859,Sr(PrSe2)2,-1.942392255863096
mp-3787,RbFe2S3,-1.0170985978125
mp-37873,Li3ErBr6,-1.6801863339999996
mp-3788,SrAl4O7,-3.473420360451389
mp-3789,Zn2SiO4,-2.4562118671428563
mp-3790,SrNb8O14,-2.863602089311596
mp-37906,LiMgN,-0.7670832541266664
mp-3791,ScCo2Sn,-0.4140017987499993
mp-37920,AgAuS2,-0.2704587561458331
mp-37949,NdSiAg,-0.5345703877777778
mp-3795,NaZnF3,-2.7886972357139994
mp-37961,MgV3O8,-2.514828586736112
mp-3797,K3AsS4,-1.2029641955
mp-38,Pr,0.0
mp-380,ZnSe,-0.710474638671875
mp-38006,Ni2SbTe,-0.22770863625
mp-38011,KHS,-1.0423364549149998
mp-3802,Ta4AlC3,-0.5753004618750008
mp-3804,Sr(PRu)2,-0.9276103907619044
mp-3805,Al(FeB)2,-0.4011437733333324
mp-38070,Rb(TeO3)2,-1.646705506111111
mp-3808,K2UO4,-3.0746439258571425
mp-381,SiRu,-0.6403366024999997
mp-3810,Hg(AsO3)2,-1.4787415930555556
mp-38102,Na3CeF7,-3.5242029084845456
mp-38103,NaClO4,-1.114517248876666
mp-38108,Ba3Pt2O7,-2.036796446979168
mp-38117,Ba(GaTe2)2,-0.7846944414285717
mp-3813,Ba2ZrS4,-2.263661121785715
mp-3816,Er6Ni2Sn,-0.4232737683333336
mp-3817,La2Au5F21,-2.2857468002675003
mp-382,Th3As4,-1.3398039614285722
mp-3821,K2PtF6,-2.4549452847933333
mp-3822,SrCO3,-2.7095715315833333
mp-38220,RbNO3,-1.4842932557259991
mp-3824,Ta9(NiS3)2,-0.9786686993382364
mp-38240,Sr(PrS2)2,-2.458669625595238
mp-3826,Ce(SiPd)2,-0.9105790969999994
mp-3828,BaAl2O4,-3.4532380971428576
mp-38280,LiTiO2,-2.9870792260416668
mp-3829,CdSnAs2,-0.1383703600000001
mp-3830,NiAsS,-0.5485234102083325
mp-38322,Mg(IO3)2,-1.4109932128703702
mp-3834,BaZrO3,-3.64820910475
mp-3835,Ba(Mo3S4)2,-1.2472029823333337
mp-38357,Ba4Bi3F17,-3.526297238967916
mp-3838,Li5ReN4,-0.8156337367853332
mp-3839,GaCuTe2,-0.2824613287499997
mp-38394,Ba(AlTe2)2,-0.8903468271428571
mp-384,MgP4,-0.3067590175238095
mp-3847,DyCoC2,-0.3468257437500002
mp-3848,BaGe4O9,-2.3657143908035723
mp-38487,Li7BiO6,-1.987465673154762
mp-38494,Y4AsSe3,-1.7508454837955725
mp-3852,Tb3(CuGe)4,-0.6348241200000001
mp-3854,Y(MnSi)2,-0.6346166125287354
mp-3855,Na2BeF4,-3.2868872806800007
mp-38564,Ce(Mo3S4)2,-1.274460364666667
mp-3857,Ba3(PO4)2,-3.3041215528571426
mp-3858,NaTaO3,-3.07989922525
mp-3859,Ca2B2O5,-3.246284250879629
mp-38605,Sn(BiTe2)2,-0.2588995371428574
mp-3862,Ca(AlGe)2,-0.3531226410000002
mp-38637,Rb(WO3)6,-2.2199936735999994
mp-38676,Li11(NiO2)12,-1.3589921479432625
mp-38684,Li2MgCl4,-2.174867889958095
mp-3869,TbBRh3,-0.799862889666666
mp-387,CeSb,-1.0572275199999996
mp-3870,Sr2Nb2O7,-3.3106060710984853
mp-3871,Ti2SnC,-0.72723426625
mp-3872,Mg(AlS2)2,-1.570179772261905
mp-38725,NaBH4,-0.424540869635555
mp-3879,Ba2CuF6,-3.4125378524600003
mp-388,ErPb3,-0.2388053299999999
mp-3881,BaZnF4,-3.4131108449600003
mp-38818,HfNbB4,-0.8628881255555546
mp-3882,Sm(SiRh)2,-1.1051933666666671
mp-3884,Ho2Sn2O7,-3.043059848522728
mp-3887,Li3GaN2,-0.659662008918333
mp-38870,Ca(Ce2Se3)4,-1.852028226339285
mp-3889,NaBO2,-2.6228453814583337
mp-389,SiPd,-0.5415486499999993
mp-38916,Y3Pb4F17,-3.586908180009583
mp-3893,Tb(CoB)2,-0.5570310033333328
mp-3895,Ho(SiRh)2,-1.1289966539999994
mp-38951,Mg(GaO2)2,-2.546588462619048
mp-3897,SmPS4,-1.484309101775794
mp-38970,Ga2Te3,-0.3209151559999998
mp-38972,Ba3Re2O9,-2.6965889836607144
mp-39,Tl,0.0
mp-390,TiO2,-3.5055776491666664
mp-3901,NdNbO4,-3.527710191666666
mp-39020,LiTa3N4,-1.389428618689999
mp-39033,Sr(NdSe2)2,-1.9361653922916664
mp-3904,Mg2GeO4,-2.739444470238095
mp-3907,Er(SiIr)2,-1.0861685460000003
mp-3909,ZrAlCo2,-0.5208705150000004
mp-391,HoAl2,-0.51216235
mp-3910,Ce(Al10Cr)2,-0.1707898976086951
mp-39105,MgTa2N3,-1.3918479867455542
mp-39140,Na4Al3Si3HO13,-2.977507179994584
mp-3915,BaHgO2,-1.970098143125
mp-39159,CaLaTiCrO6,-3.3879521484999984
mp-39167,CaScAlSiO6,-3.5953997922500003
mp-3917,Cd2GeO4,-1.7866102185714283
mp-3919,KBO2,-2.656972183458333
mp-392,U3Sb4,-0.2704364228571429
mp-39215,Zn3GaB6PO12,-2.4090292590683227
mp-3922,AgSbS2,-0.5219681173958337
mp-3923,Th2MnN3,-1.4906821194658617
mp-3924,LiNbO2,-2.694030011041667
mp-39249,BaLaMgRuO6,-2.7689163435833337
mp-3925,Co2CuS4,-0.7987696296428572
mp-3927,CaAsAu,-0.8722823316666665
mp-3928,Na5P3O10,-2.6321674812896827
mp-393,Pd16S7,-0.4487863113858699
mp-3931,SmSF,-3.360398019216111
mp-3932,Ca3Si2O7,-3.4666757759375
mp-3933,Mg2PN3,-1.129040415396349
mp-3934,Cu3PS4,-0.600182428258929
mp-3938,ZrSiS,-1.4228601593749997
mp-39419,NdTiCdSbO7,-2.7875077655681832
mp-3942,TmSnPd2,-0.9008992283333336
mp-3944,ZrAlNi2,-0.5982086075000002
mp-39460,Ca5P3ClO12,-3.320968015189252