material_id,pretty_formula,formation_energy_per_atom
mp-1218256,SrIn3Hg,-0.300189907333333
mp-1218259,SrNd2Mn3O9,-2.8285365629841457
mp-1218262,SrGaSi,-0.462130700555555
mp-1218268,SrCuSi,-0.3352246672222225
mp-1218273,SrCuGe,-0.407346568888889
mp-1218277,SrLa2BeO5,-3.531937056157408
mp-12183,KB5O8,-2.852671766761905
mp-1218307,Ta3V3(Ni10B3)4,-0.3361909774137938
mp-1218308,Ta2Se8Br,-0.5562871455681818
mp-1218319,SrCa3Zr16(PO4)24,-3.2614591319812933
mp-1218321,Tb20In40Ni19,-0.4239503381012657
mp-1218336,SrCaZn2,-0.2245753854166665
mp-1218340,Sr3La(CoO4)2,-2.6020187746428576
mp-1218343,SrNd10Se12(Cl2O9)4,-2.419483880983159
mp-1218347,Sr3(BN2)2,-1.2668675806874066
mp-1218349,SrAg3Pd2,-0.3289962194444443
mp-1218352,Sr3NdMn2O8,-2.880103780087881
mp-1218353,SrCaU2O8,-3.6915423559722207
mp-1218355,SrCaMnGaO5,-2.7081533759479828
mp-1218368,SrCaPbO4,-2.5105772452380952
mp-1218371,Sr4SeS3,-2.365619258548177
mp-1218375,Sr2Zn5Si3,-0.3183251263333332
mp-1218378,Sr4BrN2Cl,-1.523099441835833
mp-1218379,Sr4GaSi3,-0.4594248877083329
mp-1218381,Sr2TiMnO6,-3.0295107838948496
mp-1218382,Sr4Bi2O,-1.5694423539880955
mp-1218383,Sr4BrN2Cl,-1.5264510868358334
mp-1218387,Sr2TiRuO6,-2.875957483083334
mp-1218389,Sr4Se3S,-2.159013915852864
mp-1218397,Sr5ZnCd4,-0.3054656828333332
mp-1218404,Sr3CaAl8,-0.2762309879166664
mp-1218412,Sr4TaFeO8,-3.109450237619048
mp-1218414,Sr2Zn3Cd,-0.2601866430555558
mp-1218416,SrCe2(SF2)2,-3.6082088541862967
mp-1218418,Sr3Se2(ClO3)2,-2.475573886823653
mp-1218419,SrCaHf2O6,-3.817297959416666
mp-1218424,Sr9CaSi6,-0.4054918228124995
mp-1218428,Sr3LiBiO6,-2.535973718560605
mp-1218429,Sr4Fe3ReO12,-2.557800372333332
mp-1218437,Sr3LaZnRuO8,-2.698783743571428
mp-1218438,Sr3Nd(FeO4)2,-2.769970237142857
mp-1218440,Sr3Fe2TeO9,-2.473281021416666
mp-1218445,Sr3Ca(CuO2)4,-2.0924580490624995
mp-1218448,SrCa3(PbO4)2,-2.5347038658333334
mp-1218450,Sr3La(NiO4)2,-2.3913730267857143
mp-1218451,Sr3PrMn2O8,-2.8778993968735955
mp-1218454,SrCa3Hf4O12,-3.821554756833333
mp-1218456,Sr4NbCoO8,-2.912457933690476
mp-1218464,Sr4TlFe2O9,-2.416267741119791
mp-1218465,SrCa3(RuO3)4,-2.2050337293333326
mp-1218468,Sr7Ca(IrO6)2,-2.684646944848485
mp-1218470,SrCa(Ni2Sn)4,-0.3348302315476194
mp-1218476,SrCa3Ti4O12,-3.5557348283333328
mp-1218481,Sr3PrMn4O12,-2.6173008406230336
mp-1218486,Sr2YTlCu2O7,-2.257235924262821
mp-1218493,Sr6Ti3FeO14,-3.246200096354166
mp-1218494,Sr3CaHf4O12,-3.816822589499999
mp-1218497,Sr4Mn2Cu3(SeO)4,-1.7528574201336478
mp-12185,LiCu(PO3)3,-2.413200757045068
mp-1218503,Sr8RuRh3O16,-2.4176363419047617
mp-1218505,SrCa(RuO3)2,-2.191950994916668
mp-1218508,Sr3Tl(FeO4)2,-2.2962941242857147
mp-1218513,Sr4Fe3MoO12,-2.5205088140833327
mp-1218516,Sr4MnRuO8,-2.621757849805845
mp-1218517,Sr4Al6MoO16,-3.3099061406172843
mp-1218524,Sr6Zn(RuO6)2,-2.5139485061904763
mp-1218531,SrAl12O19,-3.447537353294272
mp-1218538,Sr4Zn(IrO4)3,-2.1038932753333333
mp-1218539,SrCaNbCrO6,-3.112773750416667
mp-1218541,Sr3CaSn16,-0.3225899077500003
mp-1218545,Sr2VAs2O9,-2.520906178541666
mp-1218548,Sr3Sn3Au8,-0.5603733814285715
mp-1218550,Sr4Nb5O15,-3.2274981039756945
mp-1218554,Sr7Y6OF30,-4.343682485082198
mp-1218556,Sr2V3O9,-2.8229482374702366
mp-1218560,Sr3PbS4,-2.0730976465625
mp-1218562,Sr4LaTi5O15,-3.599832195616666
mp-1218564,Sr4Al6CrO16,-3.25399488691358
mp-1218569,Sr5Zn(PbO4)3,-2.330037164444444
mp-1218577,Sr3CaTi4O12,-3.552871769
mp-1218578,SrBiNO5,-1.8893890087870824
mp-1218587,Sr4Te3(ClO2)4,-2.4380491568266662
mp-1218593,SrCe3V4O16,-3.108645329236112
mp-1218594,Sr5Fe4MoO15,-2.487740966483334
mp-1218595,Sr6Al12Bi2O27,-3.293019126462767
mp-1218601,Sr3CaNi2(WO6)2,-2.5559253150000005
mp-1218604,Sr3La2Fe4CoO15,-2.51253229135
mp-1218606,Sr5As3O13,-2.6820574737896834
mp-1218608,Sr4Li3InGe6,-0.5262585976190474
mp-1218614,Sr4Li(RuO4)3,-2.2662008384166668
mp-1218615,Sr3Ca2P3O12F,-3.431307300328775
mp-1218620,SrCdPb,-0.4138614655555554
mp-1218624,Sr5Ca5P6(ClO12)2,-3.32471107562576
mp-1218631,Sr3LaTa2(FeO6)2,-3.184389214750001
mp-1218632,Sr4BiP3O13,-3.126525513030046
mp-1218638,Sr3Ca3(Ru2O7)2,-2.373804671770834
mp-1218641,Sr7Mn4O15,-2.6833076097260524
mp-1218648,Sr6Al7ClO16,-3.427840381108666
mp-1218650,Sr3Fe2MoO9,-2.584600935083333
mp-1218652,Sr5V3O13,-2.971654192123016
mp-1218660,Sr6Yb4(CdSb2)5,-0.828375486466667
mp-1218664,Sr3CaAl8H24(C2O11)4,-2.217515171100908
mp-1218673,Sr4Zn51,-0.1637791643939395
mp-1218677,SrCa3Zr16(PO4)24,-3.2585908102670067
mp-1218679,SrCr9Ga3O19,-2.4332764106380207
mp-1218681,Sr4Mn2CuO9,-2.507080061405022
mp-1218686,Sr2TiMnO6,-3.03902326364485
mp-1218692,Sr2TiFeO6,-2.9381224663333336
mp-1218693,Sr2V3Bi3O14,-2.439767566628788
mp-1218699,SrCaPb6,-0.3096267139583335
mp-12187,Na2Mg2(Si2O5)3,-3.130237824216666
mp-1218700,Sr6As19Rh30,-0.6738868583636366
mp-1218702,Sr2TaVO6,-3.272542231583333
mp-1218705,Sr2TaFeO6,-3.1016629245833336
mp-1218707,Sr2SeS,-2.26240775220052
mp-1218708,Sr2PtAu,-0.8048204233333331
mp-1218716,Sr2Pr2TlNi2O9,-2.413903299036458
mp-1218717,Sr2NdMn2O7,-2.8202897836094736
mp-1218725,Sr2P7Rh12,-0.8247184768253966
mp-1218740,Sr2NbCoO6,-2.813495983583333
mp-1218741,Sr2NbFeO6,-2.981496531083333
mp-1218745,Sr4CuIr2O9,-2.2101296959114585
mp-1218746,Sr2MnNbO6,-2.999787586394851
mp-1218749,Sr2LiMgSi3,-0.4017304733333325
mp-1218753,Sr2NdMn2O7,-2.819488776942807
mp-1218757,Sr2La2TlNi2O9,-2.4541502209114583
mp-1218759,Sr2NdTlCu2O7,-2.229271629391026
mp-1218762,Sr2Li7CuN4,-0.5302605071085712
mp-1218763,Sr2MnSbO6,-2.59827265764485
mp-1218767,Sr2Nd2TlNi2O9,-2.4227206571614577
mp-1218769,Sr2MnRuO6,-2.3701444121448505
mp-1218791,Sr9In(PO4)7,-3.2524587150000004
mp-1218800,Sr2Ti5(Bi2O9)2,-2.8988483546839072
mp-1218808,Sr2La(FeO3)3,-2.5337248326388884
mp-1218809,Sr3CaZr16(PO4)24,-3.2652166448622446
mp-1218810,Sr2La2Cr3MoO12,-2.9727345989166665
mp-1218812,Sr2GaSi,-0.452189654583333
mp-1218824,Sr2FeSbO6,-2.581309013083333
mp-1218828,Sr2FeO3F,-2.970196087253332
mp-1218835,SnGeSe2,-0.3206942761718752
mp-1218837,Sr2CoSbO6,-2.4038860955833337
mp-1218841,Sr2Fe3Sb(PO4)6,-2.649442331660053
mp-1218844,Sr2FeCu(PbO3)2,-2.0342533134027785
mp-1218849,Sr2GdCu2IrO8,-2.3011170759523805
mp-1218852,Sr2CaSn5,-0.5567095147916663
mp-1218855,Sr2AlGa3,-0.4335582805555553
mp-1218873,Sm9Al5S21,-2.108895067875
mp-1218874,Sr12Sn4N3,-0.6760756440600002
mp-1218875,Sr2(AlAg)5,-0.2680743891666666
mp-1218879,Sr2Al2SiO7,-3.4816777285069453
mp-1218889,Sr(SiPt)2,-0.8712119933333333
mp-1218890,Sr(B2Pt3)2,-0.4237006445454547
mp-1218891,Sr10P6BrClO24,-3.307283414794172
mp-1218894,Sr10P6O25,-3.327705402179152
mp-1218896,Sr10Ti(RuO5)4,-2.674022644904763
mp-1218897,Sr10Mg4Fe(MoO6)5,-2.8428910835500005
mp-1218898,SnTePt,-0.5172433216666666
mp-1218899,Sr10P6ClO24F,-3.3807920370844107
mp-1218905,Sr10Mg5Mo4WO30,-2.914067881616666
mp-1218906,Sr10Mg5Mo3(WO15)2,-2.9304634264166665
mp-1218909,SnTe5Pb4,-0.3802526699999994
mp-1218911,Sr10Mn(RuO5)4,-2.528803892065196
mp-1218913,SmYSe2,-1.787258825338542
mp-1218914,Sr10Mg5Mo2(WO10)3,-2.946449214416666
mp-1218915,SnTe2Pb,-0.3424896199999998
mp-1218917,Sr(SiPd)6,-0.6313641439743586
mp-1218918,Sr10P6BrO24F,-3.349885549387744
mp-1218923,Sr20P12Br(ClO16)3,-3.323489022452029
mp-1218924,SnTe2Pb,-0.3468726049999997
mp-1218925,SnTe4Pb3,-0.3724392775000003
mp-1218926,SnPtSe,-0.5658280574479164
mp-1218935,Sr10Mg5Mo(W2O15)2,-2.9628824320166656
mp-1218938,SnPbSe2,-0.4972177186718749
mp-1218945,Sr20P12Br3ClO48,-3.2934759215410763
mp-1218953,SnGe4Te4Se,-0.1741496172343744
mp-1218956,Sr20P12Br(O16F)3,-3.395430310890005
mp-1218957,SmZnSi,-0.6468865011111115
mp-1218958,SnPb4Se5,-0.5342976341718753
mp-1218960,Sn2SeS,-0.6008365738671868
mp-1218963,SmV2BiO8,-2.677359123611112
mp-1218966,Sn3Te2Se,-0.3328870987239583
mp-1218970,Sn2PdAu,-0.3601048149999997
mp-1218971,SmThN2,-1.747255789523333
mp-1218975,SmYS2,-2.340032755729167
mp-1218977,Sn2(PdPt)3,-0.466828959999999
mp-1218978,SmTmS2,-2.310932738229167
mp-1218980,SmGaSi,-0.6863581027777771
mp-1218982,SmZnCuAs2,-0.6747841676666667
mp-1218983,SmThB12,-0.4645527038095238
mp-1218985,SmGdB12,-0.457561521666666
mp-1218988,SmYCu4,-0.2456479211111109
mp-1218990,SmY4Se5,-1.7700490668385414
mp-1218991,SmZnCuP2,-0.7642079230952383
mp-1218994,Sn(TePd3)2,-0.4296140699999995
mp-1218995,SmGdSe2,-1.8389644795052087
mp-1219,BaGa2,-0.4633120100000001
mp-1219005,SmYCo4,-0.1351639894444443
mp-1219007,SmGdS2,-2.383859914895835
mp-1219009,Sn4Te5Pb,-0.3075760080000002
mp-1219014,SmGa3Cu,-0.4945476886666661
mp-1219016,Sn2PbSe3,-0.4748623128385419
mp-1219019,SmGa3Pt,-0.7163099626666665
mp-1219021,Sn7Ir2Os,-0.2091229555000005
mp-1219024,SmGa3Pd,-0.679838556666666
mp-1219029,Sr20P12Br3O48F,-3.3092840953854816
mp-1219030,Sn4GeTe4Se,-0.277358165234375
mp-1219047,SmYCo17,-0.0840383574561401
mp-1219055,SmGdS3,-2.475718718541668
mp-1219056,Sn2Sb2Pb4O13,-1.8887076145833337
mp-1219058,SmThUS5,-2.2151446198697924
mp-1219063,SmGd3Al4O12,-3.700855096916667
mp-1219064,SmCuGe,-0.6322175277777777
mp-1219073,SmFe2Co2B,-0.2413962919444448
mp-1219089,Sn3TePb4O13,-1.825780233154762
mp-1219094,SmBi3(Ru2O7)2,-1.8097595009469696
mp-1219095,SmBiRu2O7,-2.05580362564394
mp-1219096,Sm8Sb3O8,-3.0518094090350885
mp-1219099,SmCu4Pd,-0.2920822105555552
mp-1219101,SmTiNbBi2O9,-2.872160145327381
mp-1219105,SmAl3Cu,-0.4657967566666663
mp-1219107,SmCdIn,-0.4222030627777773
mp-1219110,SmAlZn,-0.4483056611111114
mp-1219118,Sr18Co14O45,-2.2005239372240264
mp-1219120,SmH18(BrO6)3,-1.268951481524833
mp-1219122,RbV3Cd4O12,-2.041514067125
mp-1219124,Sr14GaAs11,-1.103863020608974
mp-1219132,Re2MoSe4,-0.465298481339285
mp-1219136,Sm3DyS4,-2.3410188478125
mp-1219137,Sm2Ga3Cu,-0.5831578627777775
mp-1219140,Sm3YS4,-2.3440651294791666
mp-1219143,Sm6Mn(SiS7)2,-2.008541133191529
mp-1219144,Sm2AsSe,-1.7330082497526045
mp-1219147,Sm6Cd(SiS7)2,-1.9928764423369565
mp-1219149,Sm6Mg(GeS7)2,-1.984933954221016
mp-1219151,Sm4Ga7Ag5,-0.4940331781249996
mp-1219153,RbTlP2(HO2)4,-2.098792092132679
mp-1219158,Sm6Cd(GeS7)2,-1.900008344076087
mp-1219159,Sm6Ge3S14,-1.864687793641304
mp-1219160,Sm6Cu8P8O3,-1.3160560104928567
mp-1219162,Sm6Ge3Se14,-1.3163488844701083
mp-1219169,Sm2ZnSb4,-0.7032379659523816
mp-1219170,Sm2P3Pt4,-1.09474893026455
mp-1219174,Sm(ZnGa)2,-0.4858706886666663
mp-1219177,Sm2C,-0.1633251588888882
mp-1219178,Sm3ErS4,-2.3288954428125
mp-1219180,Sm2SbO2,-2.9279267968333342
mp-1219181,Sm2Si3Pd,-0.8697689186111107
mp-1219183,Sm2Si3Pt,-0.9539338286111108
mp-1219184,Sm2CdSb4,-0.6847273366666669
mp-1219190,Sm3HoS4,-2.3451919090625006
mp-1219193,SiNi6Ge,-0.3743054718750001
mp-1219195,Sm2Ga3Cu,-0.5866016094444438
mp-12192,La2Ti2O7,-3.793780977045455
mp-1219209,Sm3Bi(Ru2O7)2,-2.3129731489772727
mp-1219215,Sm2VFeO6,-3.088341228916666
mp-1219222,Sm2Ga5Cu3,-0.4662982446666667
mp-1219223,Sn13Pd20,-0.5411185325757575
mp-1219227,Sm2AlAg3,-0.3315491544444444
mp-1219228,Sm(Al3Fe)3,-0.3543724802564096
mp-1219229,Sm3SiS6Cl,-2.120561608819091
mp-1219231,Sm2Fe4Co13,-0.0761996416666671
mp-1219236,Re3Br8Cl,-0.4651978365216666
mp-1219237,Si4MoW,-0.4255082166666663
mp-1219249,Si3P3Ir,-0.3672536343877541
mp-1219250,ScUS2,-1.9200774978125
mp-1219252,ScTlF6,-3.2194108090175
mp-1219263,Sm6Al3Fe11,-0.1402830469999997
mp-1219273,Sm8Al53Si17Ru12,-0.4808506679074071
mp-1219274,ScNb(NiSn)2,-0.5313971291666656
mp-1219275,Re2Os(Se2Cl)2,-0.6226832917661108
mp-1219276,Sm6Si19Rh30,-1.00035682990909
mp-1219278,ScSb3Pb4O13,-2.083764357440477
mp-1219280,SiNi3Mo2,-0.3352990450000004
mp-1219283,SrCd6,-0.2080170036904762
mp-1219290,Sm9Al(SiS7)3,-2.039250773106617
mp-1219294,ScNb2B2Ru5,-0.521360469166666
mp-1219295,SmGdCo17,-0.0733671388596489
mp-12193,Nd2Ti2O7,-3.740785917613637
mp-1219303,Si3Ag10S11,-0.5984868224045142
mp-1219315,Sm2(InSn)3,-0.4737223083333335
mp-1219319,Sm2CoNiO6,-2.5098251374166667
mp-1219328,SeS7,-0.5544610634440102
mp-1219331,ScTi4(NiSn)5,-0.5496143530000003
mp-1219334,Si2P3RhO13,-2.622185685103384
mp-1219336,Sr10In17Au27,-0.5299304780864202
mp-1219343,ScCuSe2,-1.109325888671874
mp-1219352,Sm2Mn17C2,-0.0510579152764104
mp-1219368,Sm9In(SiS7)3,-1.9938749109007348
mp-1219378,Sm14Ag51,-0.2348814588717949
mp-1219380,Sc4Co3Sb4,-0.6855425886363636
mp-1219385,Sm14Au51,-0.622239945487179
mp-1219392,Sc3Nb3(B2Ru5)2,-0.5380073024166663
mp-12194,K2Zn2(MoO4)3,-2.1067555074210524
mp-1219401,Sm2UTe5,-1.4242465483333335
mp-1219413,Sc8B8As3Rh20,-0.8022397763247857
mp-1219419,Sc5P12Ir19,-0.7423113466071416
mp-1219422,Sc7As3,-0.8870206339999995
mp-1219423,Sc2Ga3Cu,-0.5476328866666661
mp-1219426,Sc8CuTe3,-0.6542329233333335
mp-1219428,Sc2FeB2RuRh4,-0.7122186901666652
mp-1219429,Sc2CO,-2.073685380312499
mp-1219440,Sc2FeB2Ru2Rh3,-0.6355510286666657
mp-1219442,SbTePd2,-0.4074193837500006
mp-1219444,Sm8Ga21Ru11,-0.5388519644166664
mp-1219445,Sc4TaFe19P12,-0.7725214500793653
mp-1219446,SbAsPd,-0.3309337341666669
mp-1219452,ScTl2Mo15S19,-1.0777608543074326
mp-1219457,SbAs,-0.0152634325000002
mp-1219458,SbTeRh,-0.5080881791666663
mp-1219472,Sc(AlFe)6,-0.3996319226923077
mp-1219479,Sb4Se3SI4,-0.3676550183463541
mp-1219480,Sb8Pd3Au,-0.2914668749999999
mp-1219488,Sc2(NbGe)3,-0.6395415124999992
mp-1219497,Sc(Fe5Si)2,-0.2524628249999993
mp-1219504,Sb3TeClO6,-1.6583684423418183
mp-1219509,ReOs,-0.0858604424999995
mp-1219512,RuRhS4,-0.8961791170833339
mp-1219520,Sc(CuS)3,-1.0700039434821436
mp-1219522,RuRh4,-0.0070921479999995
mp-1219529,Sb3Cl9OF4,-1.650772248255882
mp-1219530,Sb28(Mo3Ru)3,-0.092491863
mp-1219532,Sr18Ca3Cr14O56,-2.6616732501648346
mp-1219533,ReIr,-0.1984170775000002
mp-1219536,ReGeAs,-0.0377913299999998
mp-1219543,Sb3RhPb4O13,-1.7262861624404755
mp-1219545,Re4(As2S)3,-0.4405498937980759
mp-1219552,RbTi3NbO9,-3.2797931291964275
mp-1219553,RbBH4,-0.4902735717188887
mp-1219554,RbLiZnS2,-1.391722253083333
mp-1219557,RbMnCuS2,-0.9879858086810352
mp-1219559,RbNaCd3O4,-1.434261624166667
mp-1219566,RbTiNbO5,-3.114813360156249
mp-1219568,RbCNO,-1.2468101152825009
mp-1219570,RbSbWO6,-2.163647396111111
mp-1219573,SbH7F12,-2.114370284481
mp-1219574,Rb5Sb4,-0.4087455541666666
mp-1219576,RbNbTeO6,-2.298335741111111
mp-1219579,Sb4Cl13F7,-1.684432296904583
mp-1219581,RbMgAlF6,-3.749343000885926
mp-1219582,RbAlNiF6,-3.200980072737778
mp-1219587,RbNbWO6,-2.613497371666666
mp-1219589,RbCrNiF6,-2.831100257182222
mp-1219591,RbCoNiF6,-2.461816111626667
mp-1219595,RbHgSbTe3,-0.3912598245833329
mp-1219596,Rb5Bi4,-0.3368262652777779
mp-1219597,RbFeCuF6,-2.5547418055155555
mp-1219602,Rb4InSbCl12,-1.793875677451111
mp-1219603,RbCrCuF6,-2.689852056626666
mp-1219605,RbAlSi3O8,-3.25455036326923
mp-1219606,RbSbMoO6,-2.0866155577777783
mp-1219616,Rb4TlSbCl12,-1.6945499341177777
mp-1219617,RbAlSi3O8,-3.2484577955769227
mp-1219622,RbLiMg(BH4)4,-0.3925970164675359
mp-1219625,Rb4SbRhCl12,-1.6879298241177776
mp-1219627,RbAs4(HO4)3,-1.6594336569180002
mp-1219628,RbLiMn(BH4)4,-0.3141409369597899
mp-1219630,Re6Se7Br4,-0.4695772530238964
mp-1219631,RbTaTiO5,-3.24515317671875
mp-1219632,Rb6Mn2CrCl12,-1.9250052363538264
mp-1219639,RbNb4Ag(PS10)2,-1.111537893945579
mp-1219640,Rb3I2Br,-1.58481450875
mp-1219643,Rb3Br2Cl,-1.9139124276266664
mp-1219645,RbBi4Se7,-0.504676414075521
mp-1219646,Sc19(RuBr7)4,-1.4208843728431375
mp-1219647,Rb2Zn3GeAs4,-0.3155073289999997
mp-1219649,Rb2W(OF2)2,-2.6895377724733334
mp-1219651,RbNaCaTh(Si2O5)4,-3.3205113577343743
mp-1219655,Rb3H(SeO4)2,-1.6751736089862497
mp-1219656,Rb(SiPt)4,-0.6712202574999995
mp-1219658,Rb8Nd(AsS4)4,-1.1600313668965525
mp-1219659,Rb3Ti4Tl(PO5)4,-2.985482784118304
mp-1219661,Rb(GePt)4,-0.4673600486111103
mp-1219662,Rb3P4H9O16,-2.167180066386429
mp-1219676,Rb5TiSb7O22,-2.1268931582857142
mp-1219678,PrAlZn,-0.4282876216666669
mp-1219679,PrBrCl2,-2.46043976288
mp-1219682,RbNb3(PO5)3,-2.9076349586120127
mp-1219683,Rb3Ti4Tl(PO5)4,-2.985345608805803
mp-1219687,PrAlNi4,-0.4519952341666672
mp-1219689,Rb6CuAgO4,-1.1818307067361111
mp-1219695,Rb4Mn(MoO4)3,-2.229753718280757
mp-1219697,Rb3Ag9(SbS3)4,-0.6530840842857144
mp-1219700,Sc2Mn12GaGe11,-0.3249194156100795
mp-1219706,PrThN2,-1.6507374099399996
mp-1219707,PrNdAl4,-0.4957859125
mp-1219713,PrNdSb2,-1.1775429087499996
mp-1219715,PrYAl6,-0.4292001622916661
mp-1219716,PrNd,-0.0019749124999997
mp-1219721,PrNdAl6,-0.433618176875
mp-1219724,PrCdIn,-0.4344107766666667
mp-1219726,PrUS2,-1.9971059753125004
mp-1219729,PrSmB12,-0.4708962591666668
mp-1219734,PtRh,-0.0066545800000001
mp-1219735,PrYMg6,-0.1077231585416669
mp-1219738,PrSm3S4,-2.3564412821875003
mp-1219739,Rb3H(SO4)2,-2.226300260169286
mp-1219740,PrUN2,-1.55319492994
mp-1219742,PrNdSb,-0.8538457749999999
mp-1219746,ScZn6,-0.2344570700000004
mp-1219753,PrNdSb4,-0.8009327241666663
mp-1219755,Rb2Cr(BrCl)2,-1.6130639309314287
mp-1219756,Rb2Ti(TeO4)3,-2.008734012777777
mp-1219758,Rb2CrBrCl3,-1.752811229254286
mp-1219760,Rb2Cd3SnAs4,-0.3114973194999997
mp-1219774,Rb12Sn2As6O,-0.5107357819642854
mp-1219776,Rb3Er7S12,-2.330964268863636
mp-1219778,Rb2TaF7,-3.525868021333
mp-1219782,Rb2CuBrCl3,-1.5529533142542855
mp-1219783,Rb4FeSbCl12,-1.6863388218955555
mp-1219784,Rb2Ti(WO4)3,-2.488439189999999
mp-1219785,PrSmCo17,-0.0515054080701762
mp-1219787,Rb2Bi4Se7,-0.6389165654927884
mp-1219788,PrTaTiO6,-3.629101767777777
mp-1219790,Rb(IrO2)6,-1.2692945038157888
mp-1219797,Ni6SnTe2,-0.1820626711111125
mp-1219798,Ni6SbTe2,-0.162745258333334
mp-1219799,Ni6SnSb,-0.1670052868750007
mp-1219800,Ni6Ge2P,-0.4032983865079376
mp-1219802,RbNaMg3Zn2(Si2O5)6,-3.0945645828571418
mp-1219817,PrZr3F15,-4.123871729886843
mp-1219820,Sr21Hg109,-0.2858608509999999
mp-1219823,PrU2S5,-2.032140494765625
mp-1219828,Rb7VSiO8,-2.2713483508823527
mp-1219831,Rb(Cr5Te8)3,-0.2498312396874993
mp-1219835,Rb4Sn21Hg2,-0.1758104177777776
mp-1219845,Pr2ZnBi4,-0.5599476121428572
mp-1219846,Pr2Ni3P4,-0.9866303726984128
mp-1219847,Pr2Ga5Au3,-0.6454757409999999
mp-1219848,Rb(WO3)4,-2.2242972372058825
mp-1219852,Pr2Ga5Cu3,-0.4696649919999999
mp-1219855,PrThUS5,-2.2315674985156244
mp-1219860,Pr6Cd(SiS7)2,-2.0024686019021734
mp-1219863,Pr6Mn(SiS7)2,-2.0130888136263114
mp-1219872,Pr6Mg(GeS7)2,-1.990107767264493
mp-1219873,Pr2Ga7Ni,-0.5468811500000001
mp-1219880,Pr6Ge3S14,-1.8738933762500003
mp-1219883,Pr2Nd2Sb3,-1.0628635114285712
mp-1219884,Pr6S3(OF4)2,-3.844217648231315
mp-1219887,Pr(AlFe)6,-0.3347941834615386
mp-1219889,Pr2Ho,0.0061918700000003
mp-1219892,Pr6Ge3Se14,-1.3366663001222827
mp-1219894,Pr2InAg,-0.3675308883333334
mp-1219896,Pr3MgNi14,-0.279043598240741
mp-12199,Hg3(PO4)2,-1.810829709972528
mp-1219908,PdPt,-0.0466025249999999
mp-1219910,Pr2AlSi,-0.5886168112499996
mp-1219914,Pr6Cd(GeS7)2,-1.909114377554348
mp-1219917,PdRhPb4,-0.1371898899999995
mp-1219919,Pr2CdSb4,-0.7110839
mp-1219920,PdAu,-0.0633892600000001
mp-1219924,PRhS,-0.9382260205654754
mp-1219926,Pb2SeS,-0.7084389238671873
mp-1219929,Pr2Al3Ge,-0.5818355450000006
mp-1219934,Rb3(Cr5Te8)4,-0.3000027469545454
mp-1219940,Pd4W,-0.0318573620000009
mp-1219942,Sr2YCu2BiPbO8,-2.260134568111111
mp-1219947,Pr8Br13N3O,-2.0304509355356
mp-1219950,Pr6Ni3Sn14,-0.5928524556521736
mp-1219951,Rb2Mo2P2O11,-2.4896509413760506
mp-1219954,NiSb6Ru,-0.1918794237499996
mp-1219960,Pb4SeS3,-0.7850771689648441
mp-1219961,SmCd6,-0.200117230952381
mp-1219967,RbNbSiO5,-3.03502866328125
mp-1219972,PrGaSi,-0.6975630183333331
mp-1219973,PrGa3Pt,-0.7259892469999997
mp-1219974,PrGa3Pd,-0.6894272489999999
mp-1219977,PrCuGe,-0.6135025050000001
mp-1219983,PrNdFe14B,-0.0498911479901948
mp-1219990,RbNd(PO3)4,-2.933765910284392
mp-1219995,Pr6Al3Fe11,-0.1130459975000008
mp-1219996,PrCu4Pd,-0.2808367991666666
mp-122,Ba,0.0
mp-1220,Be5Au,-0.0853522325
mp-1220004,PIrS,-0.9541859730654766
mp-1220007,Pr2Si2PbS8,-1.6377807976923076
mp-1220009,Sc11Ga9,-0.5846520492500005
mp-1220012,Rb2ErTi(PO4)3,-3.1142974825375944
mp-1220014,NiTeO4,-1.3589606458333323
mp-1220019,Pr3Mn4PbO12,-2.6425068861230345
mp-1220022,Rb2YbTi(PO4)3,-2.939101114730576
mp-1220023,OsRu,-0.0094638099999997
mp-1220026,PrErCo17,-0.0707373342105259
mp-1220028,PrH3(SO4)3,-2.158682131328158
mp-1220029,PH6NO4,-1.5586716985559523
mp-1220034,PHPbO4,-2.207990618170204
mp-1220035,NiTeSe,-0.2469817974479168
mp-1220041,PrGdZn2,-0.3310104937500009
mp-1220043,Pr9Al5S21,-2.1255995575892856
mp-1220044,Sm30(P4Ir5)13,-1.0053172164334303
mp-1220046,Ni11(GeSe2)2,-0.2844168299632352