material_id,pretty_formula,formation_energy_per_atom
mp-1818,SiF4,-3.498003781952
mp-18182,CsNa3TiO4,-2.413237073936781
mp-18183,YSnF7,-3.580122191295926
mp-18184,KYbP2O7,-2.853148251414503
mp-18189,LiTmSn,-0.6296725325000002
mp-1819,SbO2,-1.845751159999999
mp-18191,Tl2TeO6,-1.301896254166667
mp-18192,Sr3Sn5,-0.5761587762500002
mp-18193,CsTe7Mo6,-0.3911401473522166
mp-18194,LiTb(PO3)4,-2.9409426700529093
mp-18196,Ba(TmTe2)2,-1.5164841273809526
mp-18197,Na2BeGeO4,-2.3887137859375
mp-18198,ScSnPt,-1.00758903
mp-18199,Sr3TaAs3O,-1.5562160407812495
mp-182,SrGa2,-0.500137495555555
mp-1820,YbS,-2.578719929895834
mp-18203,KGe2(PO4)3,-2.492477841039681
mp-18209,Pr2(ZnGe2)3,-0.3868406095454543
mp-1821,WSe2,-0.5575460665625004
mp-18215,SrFe3(P2O7)2,-2.6696237603842
mp-18216,BaCa2(SiO3)3,-3.4381974097499994
mp-18217,K3AlSe3,-1.1886285297901782
mp-18219,Dy2SiSeO4,-3.357150890292969
mp-1822,TiAs,-0.9197274787499996
mp-18220,LiAlSiO4,-3.2194891157142846
mp-18222,Lu4Ge6Rh7,-0.9746784523529404
mp-18224,Rb6Ge2O7,-1.9924032102500009
mp-18229,CaTa2O6,-3.493546773055555
mp-1823,Ti3Al,-0.2794862549999992
mp-18232,Ce2Al3Ge4,-0.4593346138888887
mp-18233,Na5VO5,-2.0692899992045457
mp-1824,NdNi5,-0.2760151750000001
mp-18244,K6MnS4,-1.2817333345595614
mp-18246,K6MnTe4,-0.9166094111504702
mp-18247,Sr3ScRhO6,-2.955764809772727
mp-18251,K2MnV2O7,-2.400763167947097
mp-18253,SrGa4O7,-2.511401080034723
mp-18254,Nb7P4,-0.8597680431168843
mp-18255,RbSm(PO3)4,-2.928634071395503
mp-18256,Mg2B2O5,-3.0312321882870368
mp-18258,BaTb2O4,-3.672676207857143
mp-1826,Ta3S2,-1.0227765372500002
mp-18262,HoAgS2,-1.6527121827083335
mp-18267,La2Cu(SeO3)4,-2.0542734062828942
mp-1827,SrGa4,-0.4194077933333332
mp-18271,Na5Ti2Si2PO13,-2.9594279634704974
mp-18274,Ba4LiNb3O12,-3.217591789583333
mp-1828,ThOs2,-0.2557731066666662
mp-18280,SiO2,-3.269573685555555
mp-18285,PrCo9Si4,-0.4608436625000008
mp-18287,Ce2(SbPd3)3,-0.6919266267857134
mp-18288,Ti(SnO2)2,-2.4458873517857134
mp-18290,Sr6Ga5N,-0.5241880785316665
mp-18291,BaSbTe3,-0.7880183859999998
mp-18292,La4MnS6O,-2.5435969729679315
mp-18296,Ba5Dy8Zn4O21,-3.2588264256907884
mp-18297,Ba3(GaN2)2,-0.66390084328
mp-18299,UF3,-3.7571713967258327
mp-18300,Ca3AlSb3,-0.8375824214285714
mp-18301,RbMnO4,-1.4822306130191951
mp-18302,Mn2MoP12,-0.3535690741444985
mp-18303,Nd3CuSnSe7,-1.3092637830338545
mp-18305,Rb3AsSe4,-0.8206514096093747
mp-18308,CaZn2(PO4)2,-2.715772423626374
mp-18309,Ba2CdS3,-1.939262183229167
mp-1831,SrAu5,-0.4496160577777779
mp-18310,Si3Ag3(SnP3)2,-0.1311722983163262
mp-18311,BaTeW2O9,-2.2645289750961544
mp-18315,Cs6Si2O7,-2.3952865564224144
mp-18316,Mg2Pd,-0.5266033734722217
mp-18317,Na5SnP3,-0.371440898412698
mp-1832,LaPt5,-0.7522136558333324
mp-18327,Ba2Tl2O5,-1.9754292709722217
mp-18329,CsMgPO4,-2.9223600049765417
mp-18330,Sr3ZnRhO6,-2.417211363409091
mp-18331,GdCrO3,-3.18525706975
mp-18332,Lu2ZnS4,-2.0722553842857145
mp-18334,NaHoGeO4,-2.894082158571428
mp-18335,Ba2Ge2Se5,-1.125517239913194
mp-18337,Be3N2,-1.227249825452
mp-18340,Tb2MoO6,-3.2307421888888888
mp-18341,ErPtF7,-2.9432625159255554
mp-18343,BaMgP2O7,-3.1261411535660177
mp-18344,Ta2Tl4S11,-1.0002117534926471
mp-18345,La5Si4,-0.6856738780555555
mp-18347,KAlTe2,-0.7935387385624999
mp-18348,KGaP2O7,-2.651911807172078
mp-18350,V3P,-0.6654773727678567
mp-18351,Sr3(GeP2)2,-0.7940954821428576
mp-18352,HfTe3O8,-2.156374027708333
mp-18353,Cs2Mo3SeO12,-2.032929891289212
mp-1836,TlSe,-0.275379762421875
mp-18360,Ca5P12Ir19,-0.7213743138293659
mp-18361,K7NbAs4,-0.4635331521666662
mp-18365,RbCuSe4,-0.4079627665625001
mp-18367,Yb(Al4Co)2,-0.4306861785606066
mp-1837,TbCu,-0.2391055450000001
mp-18373,ZnSe2O5,-1.3824714366796875
mp-18378,K3AlTe3,-0.9401482923571426
mp-18383,K3NbS4,-1.5595136614374998
mp-18388,Ga7Te10,-0.3290533458823528
mp-18399,Dy3Ni7B2,-0.5091416426388887
mp-1841,SiIr3,-0.3948830262500014
mp-18411,Na3GeSe3,-0.8717146281473208
mp-18414,BaLa2BeO5,-3.496059327083332
mp-1842,NbAl3,-0.4285797499999999
mp-18420,Er3CrS6,-2.1161058508750004
mp-18421,Ba2Ga2S5,-1.7577478122916668
mp-18422,RbLiZn2O3,-1.801617032916667
mp-18423,CsYbP2O7,-2.8696139193627785
mp-18427,Nb2Al,-0.2931350486666664
mp-18429,KAg(NO3)2,-1.1425273831093328
mp-18436,RbVP2O7,-2.7010139282629875
mp-18439,Ba3AlSb3,-0.9135266817857144
mp-18440,Rb7NbAs4,-0.4087491943749999
mp-18444,Sr3CuRhO6,-2.271409217045454
mp-18447,K3Na2SnAs3,-0.472142449611111
mp-18449,K2ZrO3,-2.7927084953750003
mp-1845,CaBe13,-0.0984147132142858
mp-18450,Lu(FeGe)6,-0.2797475792307689
mp-18451,KEr3F10,-4.327161994992857
mp-18456,LaCrO4,-2.789674355833334
mp-18458,Sr5(SnP3)2,-0.8549115099816847
mp-18460,K2Si6GeO15,-3.018736333947916
mp-18462,TbGa3Os,-0.4875167639999991
mp-18463,RbZnPO4,-2.522537575510204
mp-18464,Rb4GeO4,-1.9034364722222223
mp-18466,Nd2SiSeO4,-3.329466075917969
mp-18469,SrMgP2O7,-3.131857965990261
mp-18471,Sr2UO5,-3.624859021197917
mp-18473,RbLa(MoO4)2,-2.619224681875
mp-18474,Ag8GeSe6,-0.1496084777152778
mp-1848,Te2Ru,-0.3312331808333333
mp-18480,Na3Ca2TaO6,-2.8927137593750003
mp-18481,K6MnSe4,-1.0440489324572886
mp-18482,Yb4Al23Ni6,-0.4217966271717177
mp-18483,Rb6Si2O7,-2.433961512916667
mp-18487,KVTeO5,-2.08460227834375
mp-1849,Mn2P,-0.5140753992939248
mp-18494,Nd2MoO6,-3.152522440277777
mp-18495,SrLi(B3O5)3,-2.937619331041665
mp-18496,CsMoP2O7,-2.6339611726203533
mp-18497,KMoP2O7,-2.568306969217532
mp-18498,Sr3YRhO6,-2.928261691439394
mp-18500,K3Sn4Au,-0.3404961017499999
mp-18501,Ba(AgTe)2,-0.7880921428333331
mp-18502,BaSi3SnO9,-3.1042097947321423
mp-18504,Ca3(GeAs2)2,-0.7804322574999998
mp-18505,CsHo3Te5,-1.4061384400478925
mp-18506,SmZrF7,-4.251517548795927
mp-18509,KBe3ZnF9,-3.333216870265
mp-1851,SnPd2,-0.5486955524999999
mp-18510,Sr2SiO4,-3.431876834404761
mp-18511,NdF3,-4.5067636533925
mp-1852,UF5,-3.9037350968250006
mp-18520,BaVPO6,-2.8810564742857148
mp-18525,TbMn2O5,-2.6641936746850448
mp-18527,CsMoPO6,-2.428656039611386
mp-18529,Tm2S3,-2.4745015229583336
mp-1853,Sr3P14,-0.4661088682352945
mp-18531,K2Cd3Te4,-0.6830336115000001
mp-18532,HoPS4,-1.4620189495535725
mp-18536,AgF3,-1.3383859058925
mp-18540,CsEr2Cu3S5,-1.5326772062323677
mp-18542,Nd2SiTeO4,-3.22797256125
mp-18545,CsV3(SeO6)2,-1.9972488395899188
mp-18547,NaGdGeO4,-2.848487311071428
mp-18549,Ba6Mg7F26,-3.99494480780188
mp-18555,KEr(SO4)2,-2.6764000128541663
mp-18556,Rb2Cd3S4,-1.139525446388889
mp-18561,Ga2AsRh5,-0.5321894675000003
mp-18562,Na2Si2Se5,-0.7346977110243051
mp-18566,LaSnF7,-3.6156299709255553
mp-18567,CaZn11,-0.1657253420833333
mp-18568,Na2Ge2S5,-1.0497648850694448
mp-1857,YbCd,-0.4043736233333335
mp-18571,BaCrO4,-2.473864354166666
mp-18573,La3ZnNi3,-0.3483344178571426
mp-18576,Tm2Cu(B2O5)2,-3.045007419558822
mp-18577,KAg3S2,-0.6074742419583341
mp-18578,TlZnAsO4,-1.6956028842857138
mp-18581,Hf2Co4P3,-0.9963758011904752
mp-18582,Rb2Ti(Si2O5)3,-3.203678504531249
mp-18583,Ti4Si7Ni4,-0.7120225343333326
mp-18584,Ho2SiSeO4,-3.354372392480468
mp-18585,RbAgSe4,-0.3830803912847227
mp-18591,KZnPO4,-2.5191232877244896
mp-18594,K3AsSe3,-0.9193214894330356
mp-18595,LuCu(BO2)5,-2.822839478774508
mp-18601,DyMn2O5,-2.666605314997544
mp-18605,RbLa(WO4)2,-2.6688299968749987
mp-18606,ErGe2Ir,-0.7858991131250006
mp-18609,K2Se5,-0.5751869171741072
mp-18610,Sm2SiSeO4,-3.3427902776888025
mp-18612,Rb2MoS4,-1.3335816553571431
mp-18614,In3Rh,-0.2903501781249997
mp-18619,Na2Ge2Se5,-0.6013825404687504
mp-18620,Mg(PO3)2,-2.86142643366402
mp-18622,Hf7P4,-1.071636355389609
mp-18625,KPSe6,-0.3306169885167414
mp-18628,Dy5B2C5,-0.4340939434722213
mp-18629,NaTmGeO4,-2.9105401036904754
mp-1863,SiAs,-0.0732726658333327
mp-18632,SrNi5P3,-0.7075801191534387
mp-18633,K8SnSb4,-0.4408460095384612
mp-18635,Sr6GaN5,-0.7497833422416663
mp-18636,Ba3Sn5,-0.6367450850000003
mp-18639,La2Si2O7,-3.67436963375
mp-1864,LaP5,-0.5664207175595237
mp-18640,LiTi2(PO4)3,-3.028807341243386
mp-18642,Ca(YS2)2,-2.47895299202381
mp-18645,Sc5(In2Rh)2,-0.674048858636363
mp-18647,Nd3Ti3(SeO4)2,-3.299519814980469
mp-18648,Zr2Ni12P7,-0.7384601076190485
mp-1865,UN,-1.5015676411900003
mp-18651,Sr3DyRhO6,-2.9398308138636366
mp-18652,Sr3HoRhO6,-2.947602539772727
mp-18655,Ba(SiRh)2,-0.8811487339999999
mp-18658,RbLaSiS4,-1.8628560092857147
mp-18659,SrCo2(PO4)2,-2.595663460677656
mp-1866,KO2,-0.9771414218333327
mp-18660,Sr(ScTe2)2,-1.370314509523809
mp-18662,Ho2Si2O7,-3.687950001931819
mp-18664,K4Ta2S11,-1.3670356380220587
mp-18667,TbGe2Ir,-0.8094254356250001
mp-1867,Ta2Ni,-0.2352057933333332
mp-18670,Ca5(SnAs3)2,-0.8744100888461535
mp-18672,CsDy2Cu3Se5,-1.1103831063317988
mp-18677,PrSc3(BO3)4,-3.4630830321666664
mp-18678,Nd2Ge5Rh3,-0.8277689854999991
mp-18680,Tm8S11,-2.425010973475878
mp-18684,KPF6,-3.111952276088929
mp-18685,SrCu2GeS4,-1.1247559782291665
mp-18687,NbF5,-3.381477121825
mp-1869,GaPd2,-0.6476758741666669
mp-18691,Rb2Ni3Se4,-0.63483811326389
mp-18695,Fe15Co,-0.0115097234375003
mp-18698,CsPr(CO3)2,-2.548983936293104
mp-18700,K4SiO4,-2.329631549111112
mp-18701,Ba3YRu2O9,-2.620430271305556
mp-18702,AgPO3,-1.9697397026309524
mp-18703,BaMnP2O7,-2.926545116955276
mp-18704,CsLiBeF4,-3.3724898184796714
mp-18705,Sr3TbRhO6,-2.9312350934090903
mp-18706,Y5(FeTe)2,-0.6377381418518522
mp-18707,Mg3Pt,-0.5869176041666672
mp-18710,RbSm2Ag3Se5,-1.1240990546259473
mp-18711,LiNd(PO3)4,-2.936467367275133
mp-18712,Mg3Pd,-0.4237727729166665
mp-18718,Ca(NiO2)4,-1.1567356969230764
mp-18719,KLu(WO4)2,-2.6881238852500005
mp-18720,Mn2CdO4,-1.882550620890049
mp-18721,Mn2P2O7,-2.594137014738473
mp-18722,Cs2LiMnO4,-1.8942698178929884
mp-18723,BaV2(NiO4)2,-2.220615386153846
mp-18725,YCrO3,-3.2115933409166657
mp-18726,CrNiO4,-1.4868452316666658
mp-18729,V2Co(PO5)2,-2.491380467309525
mp-1873,ZnF2,-2.622365735793333
mp-18732,TiNiO3,-2.5306457997500003
mp-18733,AlTl(MoO4)2,-2.269041819999998
mp-18734,HoVO4,-3.219082750833333
mp-1874,NbS2,-1.4483092554166663
mp-18740,V2Cd2O7,-2.093158949886364
mp-18741,RbLiCrO4,-2.101385264166668
mp-18744,Sr2ErMoO6,-3.1563458155833333
mp-18749,NiSO4,-1.7695130680208326
mp-1875,TeF6,-2.413093083162857
mp-18750,Mn(FeO2)2,-1.9832298379450264
mp-18751,Mn2ZnO4,-1.994865642318621
mp-18753,Na3Mo(OF)3,-2.617316260732
mp-18754,DyCrO4,-2.793479925
mp-18758,Co2GeO4,-1.7206153135714288
mp-18759,Mn3O4,-2.064789106692216
mp-18761,K3V3O8,-2.438700261
mp-18764,Ba2SrWO6,-2.9689179044166663
mp-1877,HoAl3,-0.4217426525000003
mp-18771,Sr2CoWO6,-2.6228552095833324
mp-18773,WO3,-2.1745768384375
mp-18776,CaCoP2O7,-2.759694323717533
mp-18779,Na2CrO4,-2.002314846071428
mp-1878,HfBe13,-0.1753149221428575
mp-18780,K2WO4,-2.258660606571428
mp-18781,CrCdO4,-1.652802109166667
mp-18784,DyVO4,-3.2186300725000003
mp-18785,CrWO4,-2.279031507500001
mp-18788,CrCoO4,-1.6213800391666655
mp-18793,LiCrO2,-2.419769624791667
mp-18795,Mn3TeO6,-1.9333780889345504
mp-18797,Yb2V2O7,-2.899234536098484
mp-18798,Sr2Mn2O5,-2.5776050928681857
mp-18799,YbVO4,-2.655652136111112
mp-1880,SbF3,-2.7093042833925
mp-18803,Na2WO4,-2.219659047142857
mp-18806,Ni3(BO3)2,-1.8824924840151525
mp-18808,LuMnO3,-3.122341866873034
mp-18809,Li2VGeO5,-2.3872561827314818
mp-18812,NdVO4,-3.182742258333333
mp-18814,MnCO3,-2.025636317873034
mp-18815,KVO3,-2.416740802350001
mp-18817,NiSeO4,-1.0922216037239585
mp-18819,Ni2P2O7,-2.159078668262987
mp-1882,CaCu5,-0.1229663374999994
mp-18820,Sr3Fe2O7,-2.479602635729167
mp-18825,YCrO4,-2.77695179888889
mp-18827,AlVO4,-2.804276590277778
mp-1883,SnTe,-0.2948002349999998
mp-18831,Y2Mn2O7,-2.888316360149729
mp-18832,K2VO2F3,-2.8163410821337496
mp-18833,Sr3Cr2O8,-2.6387607676923066
mp-18834,SrMoO4,-2.730392236944444
mp-18835,VPO4,-2.7085146272619056
mp-18837,KSc(MoO4)2,-2.580422268166666
mp-1884,Ca5Ge3,-0.6338894918749998
mp-18844,CaMn2O4,-2.4612781819614784
mp-18845,Ba2FeWO6,-2.68842183825
mp-18846,Na4(CoO2)7,-1.5409510021000006
mp-18847,V2CdO4,-2.246870560714285
mp-18848,Sr2MgWO6,-2.980374461416666
mp-1885,AlIr,-0.9589795700000004
mp-18850,BaYMn2O5,-2.8031454500904096
mp-18852,Na2MoO4,-2.213871205714285
mp-18853,TlV2AgO6,-1.904726918083334
mp-18855,Co2Te3O8,-1.4976691053846156
mp-18856,MoO3,-2.0181619478125
mp-18859,Sr5Cr3O12F,-2.798540225691587
mp-1886,TbTl3,-0.2511015125
mp-18860,Li2VSiO5,-2.772849040509259
mp-18861,BaNd2Mn2O7,-2.9643390591650296
mp-18863,PrCrO4,-2.7411102408333328
mp-18864,Rb2WO4,-2.244847317142857
mp-18867,Ba3W2O9,-2.8021968640178576
mp-18868,RbFe(MoO4)2,-2.119961365625
mp-1887,MoP2,-0.5154909307142846
mp-18870,Mn3Cd2O8,-1.7680235170650396
mp-18873,Rb2NaMnO4,-1.8285438038268964
mp-18875,MgWO4,-2.5636110113888884
mp-18878,LiFeAs2O7,-1.8806813323106053
mp-18883,YVO3,-3.280168574416668
mp-18884,Na4CrO4,-1.8610424472222225
mp-18885,LaCrS2O,-2.307466454499999
mp-18889,VAg3O4,-1.2515388031250003
mp-18890,CaFe(SiO3)2,-3.0692526405
mp-18892,KBaVO4,-2.784817412928571
mp-18893,Ca2Mn3O8,-2.430366820141963
mp-18894,CaCo(SiO3)2,-2.98560814625
mp-18897,NaVTeO5,-2.05901057140625
mp-18898,Sr(NiO2)4,-1.147976441666667
mp-189,SiRu,-0.6500510512500002
mp-1890,BMo,-0.5020930416666669
mp-18908,Sr2NiTeO6,-2.2869046880833324
mp-18909,BaNi2(PO4)2,-2.4892383120879127
mp-18913,Ba3Cr2O8,-2.6391959838461547
mp-18914,K2MoO4,-2.265958769428571
mp-18918,ZnWO4,-2.050901620833333
mp-1892,Ba2N,-0.5330718641266667
mp-18921,NaCoO2,-1.6377704081249993
mp-18922,Mn5O8,-1.9710247417750668
mp-18924,Sr3(FeO3)2,-2.613301507045453
mp-18925,Li6CoO4,-1.9680653329545463
mp-18928,Mn2SiO4,-2.607075881604336
mp-18929,BaV2O6,-2.6987754608333328
mp-18932,LiPr(WO4)2,-2.6358648884722222
mp-18933,Li2WO4,-2.3435456097619047
mp-18935,K2V(PO4)2,-2.6813729875494507
mp-18936,NdFe3(BO3)4,-2.6533310869166664
mp-18937,V2O3,-2.52848780075
mp-18938,Tl2MoO4,-1.717550947142856
mp-1894,WC,-0.122645545000001
mp-18940,Sr2NiMoO6,-2.4853714995833323
mp-18944,Na5Y(WO4)4,-2.401540445128205
mp-18946,VBO3,-2.732526793416666
mp-18953,NaV(OF)2,-2.7134725541466658
mp-18954,ScMnO3,-2.9953354978730347
mp-18956,SmCrO4,-2.7031670805555543
mp-18957,NaMnO2,-2.043963970153793
mp-18958,UMoO6,-2.820214171249998
mp-18960,ErVO4,-3.220165084999999
mp-18964,K3NaCr2O8,-2.0640311842142864
mp-18965,BaCoO3,-2.1061777372500003
mp-18966,FeAgO2,-1.3400056789583328
mp-18967,Ba2CoMoO6,-2.53147505125
mp-18968,Li2FeSiO4,-2.630870648229168
mp-18969,FeCO3,-1.894906972749999
mp-18971,Mn(PtO2)3,-1.1918805378115167
mp-18973,CoSe2O5,-1.314967671679688
mp-18974,HoNiO3,-2.444070687250001
mp-18975,Na2SrV4O12,-2.5452787264035086
mp-18977,Ba2CaWO6,-3.0307175352499995
mp-1898,CeSi2,-0.659879959999999
mp-18983,ErNiO3,-2.4514292832500004
mp-18986,Ba2MgWO6,-2.957056778083333
mp-18988,Li2MnO3,-2.189953664616418
mp-18990,Ba2Mn(BO2)6,-2.963478538719769
mp-18992,Ba2MnTeO6,-2.4909902778115174
mp-18993,LuVO4,-3.219057779166667
mp-18994,CsMnO4,-1.5041228901743675
mp-18995,Ba2FeMoO6,-2.58767217975
mp-18996,TlV3O8,-2.198379072916667
mp-18997,LiMnPO4,-2.6443614183361808
mp-18998,Sr4Mn3O10,-2.596486588883069
mp-19,Te,0.0
mp-190,ReO3,-2.146857412187501
mp-1900,CaAs3,-0.5602860587499996
mp-19001,SrMnO3,-2.508619209706368
mp-19002,TmNiO3,-2.461999882916667
mp-19005,Y6WO12,-3.674450607105263
mp-19006,MnO,-1.9934462509325848
mp-19007,V2PO5,-2.610831748727679
mp-19009,NiO,-1.037390508125
mp-1901,NaO2,-0.9074830424999996
mp-19011,Ba2NiTeO6,-2.24869480375
mp-19012,CaMoO3,-2.6878095992499995
mp-19014,Sr2CdWO6,-2.624980779083333
mp-19017,LiFePO4,-2.5571951564625857
mp-19019,NiMoO4,-1.7399519791666656
mp-1902,MnPd,-0.1941001348275861
mp-19023,YbCrO4,-2.575018986944445
mp-19026,Na4FeO3,-1.5935640342187494
mp-19027,Na5CoSO2,-1.338821603958333
mp-1903,BaAl4,-0.2411789060000004
mp-19030,La4V5(Si2O11)2,-3.2488226219285723
mp-19031,RbVO3,-2.41549651975
mp-19033,WO3,-2.1733312390625
mp-19034,Mg3V2O8,-2.7675988030769227
mp-19035,BaFeO3,-2.2480323367499992
mp-19037,K2W2O7,-2.2812519527045465
mp-19038,SrV2O6,-2.676493832129629
mp-19039,CdMoO4,-1.888624317499999
mp-19045,Ba2MnZn2(AsO)2,-1.4836819878461305
mp-19046,KMnO4,-1.469614819352529
mp-19047,MgMoO4,-2.476798848055555
mp-19048,BaWO4,-2.724683924166667
mp-19050,Ca2MnO4,-2.7607575104450257
mp-19051,LaCoO3,-2.6578651047500004
mp-19057,CaNiP2O7,-2.697596413262987
mp-19068,TmVO4,-3.225090552222222
mp-1907,TiTe2,-0.6969586700000002
mp-19072,Si(NiO2)2,-2.015501937857142
mp-19075,K2SrV4O12,-2.572885681719299
mp-19076,HoCrO4,-2.794998734166667
mp-19077,CrAsO4,-1.9663601816666656
mp-19078,Ba2SrWO6,-2.967925274416666
mp-19081,MnMoO4,-2.1338749784358626
mp-19082,TiMnO3,-2.966501007873034
mp-19083,NaVO3,-2.387528685750001
mp-19084,BaMg2V2O8,-2.8738633874358976
mp-19085,Ba2MnWO6,-2.7487749728115167
mp-19086,BaCoO2,-2.118187146875
mp-19087,Na3Co2SbO6,-1.840096348958334
mp-19090,MnTeMoO6,-1.916063330901686
mp-19092,CoWO4,-1.9575188225
mp-19093,Ba2UNiO6,-3.05596501175
mp-19094,VO2,-2.484963132499999
mp-19096,Ba2VO4,-2.937114867142857
mp-19097,FeBO3,-2.3750805234166656
mp-19098,Ba2CaWO6,-3.0335323042499995
mp-191,YRh,-0.8429661766666667
mp-1910,CeNi5,-0.3433053258333333
mp-19102,Sr2FeO4,-2.586937051190476
mp-19104,LiYb(WO4)2,-2.4167244027777777
mp-19107,LiMnVO4,-2.380132912468835
mp-19108,Ca2MnWO6,-2.780565306311517
mp-19109,FePO4,-2.4171677783730154
mp-1911,CeSn3,-0.5485630912500001
mp-19112,FeSO4,-2.058042508020834
mp-19114,Ca2NiWO6,-2.57221748775
mp-19115,CaFeO3,-2.3344686152499987
mp-19116,Sr2CaMoO6,-2.962768752583333
mp-19117,Li4MoO5,-2.3021080957916675
mp-1912,ZnAg,-0.0496258891666667
mp-19120,MgCrO4,-2.203609643055555
mp-19121,TbVO4,-3.217427575
mp-19123,Rb2LiVO4,-2.373026880833333
mp-19126,NdCrO4,-2.7513815625
mp-19127,Sr2FeMoO6,-2.622288796083333
mp-19128,CoO,-1.4096157968750005
mp-1913,ErPt3,-1.0426793524999995
mp-19131,LiMnBO3,-2.5241351190608623
mp-19133,YVO4,-3.198737759722222
mp-19134,CaCrP2O7,-2.883471650308441
mp-19137,K2Mn(SeO3)2,-1.776860195800243
mp-19138,BaNiO3,-1.7536430497499993
mp-1914,YGa2,-0.6639030644444445
mp-19140,K3MnO4,-1.782580443701896
mp-19141,K6Co2O7,-1.4887968704500003
mp-19142,Mn2V2O7,-2.329219861816394
mp-19143,BaCo2(AsO4)2,-2.0182444134615385
mp-19144,Rb2W2O7,-2.270164252159092
mp-19146,CrPbO4,-1.7369093604166654
mp-19147,NiCO3,-1.5887887697500012
mp-19148,K2Mn2O3,-1.7745857937114786
mp-19149,NaNiO2,-1.252468430625001
mp-1915,Fe2B,-0.3079707594444431
mp-19153,Lu2Mn2O7,-2.9499180709073047
mp-19154,Ba(FeO2)2,-2.234311885714285
mp-19155,CrHgO4,-1.30758930125
mp-19156,BaMnO3,-2.493980114373035
mp-19158,Mn3WO6,-2.138402019434551
mp-19161,Ca2CoWO6,-2.64474895025
mp-19162,LaVO4,-3.232012815
mp-19163,SrWO4,-2.741912266111111
mp-19164,BaDy2CoO5,-3.183646499027778
mp-19165,BaFe(Si2O5)2,-3.14277025234375
mp-19166,Sr3NiPtO6,-2.2491252340909087
mp-19167,Rb2NiO2,-1.1962525285000003
mp-19169,PrVO4,-3.173509195833334
mp-19170,PrNiO3,-2.33947642375
mp-19172,KV3O8,-2.369681718583333
mp-19173,UMnO4,-3.1452043809358607
mp-19175,MnSe2O5,-1.5016981430065846
mp-19176,La2NiRuO6,-2.6048186867500007
mp-19177,CrO2,-2.0625645525
mp-19178,CoAgO2,-1.081140853958333
mp-19179,Ba2V(SiO4)2,-3.2189592557692306
mp-1918,FeRh,-0.0545977549999996
mp-19182,Ba2CaWO6,-3.03122028925
mp-19185,Mn3(BO3)2,-2.448109751001107
mp-19188,Ba3Mn2O8,-2.43888814278695
mp-19189,K2Co(SeO3)2,-1.6435768593806812
mp-19192,Y2MnNiO6,-2.804373617478184
mp-19197,Ba3CrO5,-2.7603730173611103
mp-19198,CoSO4,-1.899027520520833
mp-1920,Ni5P4,-0.477340051587301
mp-19202,MgCr2O4,-2.6464524897619035
mp-19208,La2MnCoO6,-3.2608470898115165
mp-1921,ThTe,-1.1003443300000004
mp-19210,CoPtO2,-1.0971592093749996
mp-19212,Rb2MoO4,-2.255170687857142
mp-19213,Ba2Mn2Sb2O,-1.174442397497192
mp-19215,CaCrO4,-2.445567205833333
mp-19217,ErMnO3,-3.094358549539701
mp-19219,Li3VO4,-2.508336756875
mp-1922,RuSe2,-0.4246285098958324
mp-19220,CaSi2NiO6,-2.9214771505000003
mp-19225,FeAgO2,-1.3487900420833334
mp-19226,NaFePO4,-2.4927609915816324
mp-19230,K3NaCr2O8,-2.063134345285714
mp-19231,Mn(SbO2)2,-1.862859817587881
mp-19232,K2CrO4,-2.075427494785714
mp-19238,Co(PtO2)3,-1.0564580422499994
mp-19239,Mg6MnO8,-2.861401866541011
mp-1924,TbSi,-0.8255465200000005
mp-19240,ErCrO4,-2.796935009166667
mp-19241,BaNiO3,-1.7537826957500002
mp-19242,YNiO3,-2.408142912916668
mp-19247,ScVO4,-3.0493252866666665
mp-19248,BaSm2CoO5,-3.114447103101853
mp-19249,YbNiO3,-1.8978147225833328
mp-19251,RbLiCrO4,-2.101150328452381
mp-19252,K2NiO2,-1.2425317737