material_id,pretty_formula,formation_energy_per_atom
mp-22726,Sr2LuIrO6,-2.8369409695833334
mp-22729,La3(GePd)4,-0.914562267727273
mp-22734,HfPbO3,-2.9996835230000003
mp-22735,Ca2Sn,-0.6571195550000001
mp-22736,InCuS2,-0.8103288828125006
mp-22737,Sb8(PbS5)3,-0.7027508487259618
mp-22744,Ta11(NiSe4)2,-0.5714048335119046
mp-22745,Co9Se8,-0.2744017784558829
mp-22749,Mn5C2,-0.0676034183251244
mp-2275,UF6,-3.713239014948571
mp-22755,TbGeIr,-0.928203008333334
mp-22756,K2PbO3,-1.5982343907916663
mp-22758,U(SiIr)2,-0.7864957419999996
mp-22759,CoBW,-0.4329220752777776
mp-22760,La(MnGe)2,-0.4639655808620702
mp-22766,CaIn2O4,-2.404378198571429
mp-22767,ThGa4Co,-0.4960432766666667
mp-22769,TiCoGe,-0.5980234949999989
mp-22775,Sr(Sb3Ru)4,-0.3065736792156858
mp-22779,YbSnPt,-0.9936466299999992
mp-22780,BaIn2Ir,-0.3684033700000002
mp-22785,SmMnB4,-0.5584278727203061
mp-22786,ThNiSn,-0.6952412633333344
mp-22787,Fe2Si,-0.3814160233333332
mp-22790,VGaCo2,-0.3150056399999998
mp-22791,TlInTe2,-0.3634144350000001
mp-22793,AlFe3C,-0.1610089459999997
mp-22794,TmGeRh,-1.0042458727777763
mp-22795,Pb2Au,-0.0808958116666662
mp-228,Te2Rh,-0.4006048366666667
mp-2280,CuSe2,-0.0742590898958332
mp-22801,LuSiRh,-1.097648818333332
mp-22804,Na3In2(AsO4)3,-1.99139814575
mp-22808,Dy3(AgSn)4,-0.4881287157575762
mp-22809,KCeSiS4,-1.780924507214286
mp-2281,SmSb,-1.1714107091666677
mp-22811,InCuSe2,-0.4315877836718749
mp-22812,In2Ir,-0.1618084958333335
mp-22816,TbGeRh,-0.9819076999999996
mp-22820,Na2InNiF7,-2.766098024166364
mp-22821,SnP2PbO8,-2.461253336220237
mp-22822,BaV2CdO7,-2.502404316022727
mp-22826,KNb8O14,-2.77145384828261
mp-22827,Er15C19,-0.342607897205882
mp-22829,CoB4O7,-2.6216759739236104
mp-2283,ZrCo,-0.2915301575000004
mp-22830,DySi3Rh5,-0.9756543057407412
mp-2284,AgF2,-1.4500463785711108
mp-22841,Ba2In2S5,-1.6737344582638891
mp-22848,Cl2,0.0
mp-22849,BiI3,-0.4830301649999997
mp-22850,RuCl3,-0.9891395636949998
mp-22854,Pr2I5,-1.412168825714286
mp-22855,HgCl2,-0.9970033913400002
mp-22856,Bi2S3,-0.7416775533749999
mp-22859,HgI,-0.2570876649999999
mp-2286,Li2Se,-1.2604582752256943
mp-22860,LaI,-1.0764239175000003
mp-22862,NaCl,-2.1050868141300003
mp-22864,Bi2Pt,-0.2404520483333332
mp-22866,HoBi,-0.8289591999999999
mp-22867,RbBr,-1.76158495875
mp-22869,ClO3,-0.4993520417524992
mp-22870,InBr,-0.6715661425000001
mp-22871,ZrCl3,-2.1892136586950004
mp-22872,SbCl3,-1.31478264807
mp-22873,SmBi,-0.9210315666666666
mp-22874,PBr5,-0.336744108095238
mp-22876,CsI3,-0.8324159326077585
mp-22877,VCl2,-1.5507567721733335
mp-22881,CdCl2,-1.4886888255066666
mp-22882,YbBr2,-2.101276468888889
mp-22883,PbI2,-0.6678753433333332
mp-22888,CaBr2,-2.048460685
mp-22889,ZnCl2,-1.5432149805066666
mp-22892,RuBr3,-0.3224221762500003
mp-22893,PbI2,-0.6674849166666667
mp-22894,AgI,-0.2799037716666666
mp-22895,CuI,-0.1468129174999997
mp-22896,LaCl3,-2.852747147445
mp-22897,HgCl,-0.84067049163
mp-22898,KI,-1.4909589040000002
mp-229,ZrRh3,-0.692768577499999
mp-2290,NdRh2,-0.6719736249999997
mp-22902,LiBi,-0.3754342383333333
mp-22903,RbI,-1.50632952625
mp-22904,CaCl2,-2.7926674471733333
mp-22907,DyBi,-0.8515863399999999
mp-22908,BiCl3,-1.37831479807
mp-22909,ZnCl2,-1.5440916355066667
mp-2291,Si2Ni,-0.3540861433333333
mp-22913,CuBr,-0.250167985
mp-22914,CuCl,-0.6755105716299998
mp-22916,NaBr,-1.5826751675
mp-22917,CuBr,-0.2478637424999998
mp-2292,La2O3,-3.88330143
mp-22921,TbBi,-0.8725445499999998
mp-22922,AgCl,-0.7242274732966671
mp-22924,NaBi,-0.2992025075
mp-22925,AgI,-0.2806209041666667
mp-22926,LaBi,-1.0473484825000003
mp-2293,MnSe,-0.3530941159994611
mp-22930,Rb4CdCl6,-2.057475291323636
mp-22932,KInBr4,-1.18309727675
mp-22934,K2PtCl4,-1.6759301741485717
mp-22935,CsBrF,-1.967690128040345
mp-22936,Ca2NCl,-1.80974270391
mp-22937,Na4I2O,-1.379950891607143
mp-22939,BiClO,-1.69561347817
mp-2294,Al3Ir,-0.6646514275
mp-22942,BaBiO3,-2.2432564067500005
mp-22945,TeRhCl,-0.7325501894199995
mp-22946,CrClO,-2.02917910317
mp-22947,K2ReCl6,-1.6711071978400005
mp-2295,CaNi2,-0.1899259233333333
mp-22950,CsNiCl3,-1.5662359705422069
mp-22951,BaIF,-3.0307016970633334
mp-22952,CeClO,-3.408712424836667
mp-22953,YbCuBi,-0.5315199105555551
mp-22955,LiIO3,-1.3860579960833328
mp-22956,K2PdCl4,-1.715258929862857
mp-22957,SrClF,-3.5956643653722224
mp-22958,KBrO3,-1.0579926073499997
mp-2296,Ni3P,-0.4408942508928568
mp-22962,CsTiBr3,-1.3931951895862071
mp-22963,K2TeBr6,-1.0416701684444445
mp-22964,PbClF,-2.1477092598166667
mp-22965,BiTeI,-0.3712983383333335
mp-22968,NaClO4,-1.1185220813766663
mp-22971,SbSBr,-0.6640439602083337
mp-22975,Rb2TeCl6,-1.6686925938400003
mp-22976,Rb2(NbCl3)3,-1.8720123378099995
mp-22977,CsVCl3,-1.8913599955422071
mp-22978,Rb2MnCl4,-1.9430595139564533
mp-22981,TlIO3,-0.97995814175
mp-22982,CuBiS2,-0.6081898859375006
mp-22983,LiAlCl4,-2.0429953257844446
mp-22984,NaBiO2,-1.7313897456249996
mp-22987,BiIO,-1.214905322083333
mp-22988,CsGeCl3,-1.702232999542207
mp-22989,NaIO3,-1.3336535932499998
mp-22990,CsICl2,-1.4078079048627583
mp-22991,CsVI3,-0.9157097515862068
mp-22993,AgClO4,-0.5251094002655551
mp-22994,LiIO3,-1.390273279583333
mp-22996,SbSeI,-0.3181999332812501
mp-22999,Hg3(ClO)2,-0.8010059212885713
mp-23,Ni,0.0
mp-230,SbO2,-1.84768907875
mp-23003,Ce2BiO2,-2.8766442185
mp-23004,CsMgCl3,-2.3113313642088733
mp-23005,Bi4Te7Pb,-0.2643691383333332
mp-23008,PbBrF,-1.8243685037300004
mp-23009,Ca2BrN,-1.5109138355949998
mp-2301,NiP3,-0.3027537845535706
mp-23012,Bi2Pd3S2,-0.5565640373214293
mp-23017,CsCu2Br3,-0.7958717229885061
mp-23018,BiSbO4,-1.8522287441666665
mp-23019,UNCl,-1.9158725685466669
mp-2302,AsRh2,-0.4771463533333329
mp-23021,K2ReBr6,-0.9849129667777782
mp-23023,LaBrO,-3.2389638570833337
mp-23024,SrBrF,-3.226366219285556
mp-23025,LaClO,-3.603235334836668
mp-23029,Cs3Sb2I9,-0.9084367663423646
mp-2303,DyZn,-0.3459958174999999
mp-23032,CsCuCl3,-1.4777502478755404
mp-23033,Sr2NCl,-1.666012852243333
mp-23036,K2SeBr6,-0.8953453098159723
mp-23037,CsPbCl3,-1.8694432215422068
mp-23038,CsVBr3,-1.265190757586207
mp-23039,Er6MnBi2,-0.4065816099616863
mp-23040,Ca2PI,-1.4120666458928577
mp-23041,SbSI,-0.5333161452083335
mp-23043,RbPb2Br5,-1.1510588071875
mp-23046,SrIF,-3.008188014285556
mp-23047,Ho6MnBi2,-0.4053311666283521
mp-2305,MoC,-0.0838373499999995
mp-23050,GdClO,-3.4769700998366666
mp-23051,NbSeI,-0.7264734849479174
mp-23052,ZrIN,-1.501717227460001
mp-23054,NaBiO3,-1.5960276737500003
mp-23056,Sr2BrN,-1.388474296428333
mp-23057,CsLiBr2,-1.6728491648994257
mp-23058,NdClO,-3.469862874836668
mp-23059,Rb2SnCl6,-1.8775050993955555
mp-23060,Cs2PtI6,-0.8207195617624521
mp-23061,VClO,-2.1879520240033337
mp-23062,YCI,-0.8593910277777775
mp-23063,Ba4Cl6O,-2.984181201891818
mp-23064,Bi2MoO6,-1.905061843611111
mp-23065,CsCu2Cl3,-1.2474412487851725
mp-23067,K2PdCl6,-1.5397356950622223
mp-23068,NdBrO,-3.110905020416667
mp-23070,BaBrF,-3.255402180396666
mp-23072,BiBrO,-1.3837758437499996
mp-23076,Rb2CoCl4,-1.757421327934286
mp-23077,Cs2UCl6,-2.31937646838023
mp-23083,KAs4BrO6,-1.6762790983749998
mp-23084,BiPbClO2,-1.6828694221519995
mp-23085,Ba2Cu3(ClO2)2,-1.8924470474109087
mp-23086,ErSeClO3,-2.499677081142292
mp-23087,Mg3B7ClO13,-2.915730089285139
mp-23089,SrTa2Bi2O9,-2.84976457592262
mp-23090,La3Si2S8I,-1.9234421507142847
mp-23091,Ba2BiSbO6,-2.4624061802499995
mp-23092,Ba2TaBiO6,-2.9607845377500004
mp-23093,Sr2NdBiO6,-2.7953048820833337
mp-23094,Ba5V3ClO12,-3.050928651107619
mp-23095,Ca3Cu2(ClO2)2,-2.31703017422909
mp-23096,LuSeClO3,-2.504352611142292
mp-23097,K2Os(Cl2O)2,-1.6988184957266663
mp-23099,Cs2Pd(IBr2)2,-0.9518613573180076
mp-23100,Sr2LuBiO6,-2.9018898120833327
mp-23102,Sr2Cu(ClO)2,-2.447842746050476
mp-23104,Pb2ClOF,-1.93484231114
mp-23108,Cs2NaUCl6,-2.2353012290422067
mp-2311,NbO,-2.2934472022916665
mp-23110,NaHg2IO2,-0.94605503375
mp-23111,Mg2VBiO6,-2.537891069916667
mp-23114,Sr2Co(BrO)2,-2.2343706051190475
mp-23116,CuBiSeO,-0.8375895671484379
mp-23117,La3W(ClO2)3,-3.206945497867693
mp-23118,CsEr6CI12,-1.2507130033965512
mp-23120,Cs2NaYCl6,-2.48980946737554
mp-23121,Sr5P3ClO12,-3.3393408827289344
mp-23122,Li10B14Cl2O25,-2.7513588094333987
mp-23125,K3NaFeCl6,-1.91588670896
mp-23126,KAs4IO6,-1.6425835454583328
mp-23127,Ba2BiSbO6,-2.46254291125
mp-23129,Ba2Cu3(BrO2)2,-1.6988860531818188
mp-2313,MgIn,-0.0782922016666667
mp-23130,Sr2Co(ClO)2,-2.5484267910504763
mp-23131,Sr2BN2Cl,-1.7139541149477775
mp-23133,Sr2Cu3(BrO2)2,-1.6978571816666668
mp-23134,Mg2VBiO6,-2.539035547416667
mp-23136,KBi(WO4)2,-2.1507246335833337
mp-23137,Ba2YBiO6,-2.821703819083333
mp-23138,SbPbClO2,-1.7131975831519994
mp-2314,LiPb,-0.2719075283333332
mp-23140,AgHgSI,-0.3761294634895837
mp-23141,Sr5P3BrO12,-3.2786311747165526
mp-23144,TlRe3(Se2Cl)2,-0.7252820395895
mp-23145,Na4Al3Si3ClO12,-3.093620514054782
mp-23146,TlZnSClO4,-1.861145957985625
mp-23147,Na4Al3Si3BrO12,-3.050334787391304
mp-23149,K4Al3Si3ClO12,-3.11840067435913
mp-2315,NaB15,-0.0507041365624996
mp-23151,Na4BeAlSi4ClO12,-3.0158971349243475
mp-23152,Bi,0.0
mp-23153,I,0.0
mp-23154,Br,0.0
mp-23155,Ar,0.0
mp-23159,SrBi3,-0.4406572341666668
mp-2316,TmZn,-0.3565438341666667
mp-23160,ThBr4,-1.7357629200000002
mp-23162,ZrCl2,-2.0408340955066664
mp-23163,CsBi2,-0.310377610977012
mp-23165,PtBr3,-0.257326496875
mp-23169,Pr2Br5,-1.84919396
mp-2317,LaNi5,-0.2819604575000009
mp-23170,IO2,-0.70667193375
mp-23171,PrBi,-0.9538452275000004
mp-23174,ReCl3,-1.1189389057783334
mp-23175,Nd4Bi3,-0.8312776878571425
mp-23176,SbCl5,-1.1427857818833338
mp-23177,HgBr,-0.42509156
mp-23178,WCl6,-1.3628257856514283
mp-23179,NiBi3,-0.0271037918749996
mp-23182,SnI4,-0.3776104804999999
mp-23183,NdCl3,-2.733451921195
mp-23184,BCl3,-1.419139629528333
mp-23187,La4Bi3,-0.9166761178571434
mp-23189,BI3,-0.0630861158333329
mp-2319,P2Os,-0.5208124123809519
mp-23192,HgI2,-0.3129193966666668
mp-23193,KCl,-2.24857100813
mp-23194,LaI2,-1.4197203283333335
mp-232,DyRh,-0.876199465
mp-23202,InI,-0.4663510175000001
mp-23205,MgI2,-1.031390207777778
mp-23206,BiPd,-0.3159774587499999
mp-23207,ClO2,-0.5612862052533334
mp-23208,UCl3,-2.1339633149450004
mp-23209,SrCl2,-2.8817299777288885
mp-2321,Tb3Ge5,-0.7260161424999998
mp-23210,MgCl2,-2.253713056617778
mp-23211,PrCl3,-2.743619872445
mp-23214,CaCl2,-2.792543015506667
mp-23215,ThCl4,-2.629998128608
mp-23216,SnBr4,-0.6936913570000002
mp-23217,Bi2Rh,-0.2042000625
mp-23218,AsI3,-0.1972164537500003
mp-23219,CuBr2,-0.30782196
mp-2322,YAl2,-0.5314643544444445
mp-23220,YbCl2,-2.868833783978889
mp-23221,PrBr3,-1.90937421
mp-23222,Li3Bi,-0.5275477049999999
mp-23223,TiI3,-0.7998538012499994
mp-23224,BiTe,-0.1989238683333335
mp-23225,BBr3,-0.526998780833333
mp-23228,PCl5,-1.0695822512285715
mp-2323,BeCu,-0.1002443075000005
mp-23230,PCl3,-1.1469498820878572
mp-23232,FeBr3,-0.3633132412499997
mp-23234,TmBi,-0.7752767216666667
mp-23237,BiF3,-2.8012679121425004
mp-23238,Ta3I7,-0.4760765637499993
mp-2324,PrCd2,-0.3522139849999999
mp-23240,CoCl2,-0.9672695005066672
mp-23241,YBi,-0.8917528766666667
mp-23244,UI3,-0.8575851624999995
mp-23245,ErBi,-0.8052783249999997
mp-23247,ZrBr3,-1.3986448075000006
mp-23250,UCl6,-2.00802258612762
mp-23251,KBr,-1.7616458115
mp-23252,Ce4Bi3,-0.7038444949999995
mp-23253,RbBi2,-0.3255728925000003
mp-23255,UBr3,-1.29219942875
mp-23257,IF5,-1.9953849319916668
mp-23260,BaI2,-1.7980197241666669
mp-23261,I2O5,-0.7673884626785714
mp-23262,Bi2O3,-1.6523517087499997
mp-23263,LaBr3,-2.02255688
mp-23264,TiI3,-0.8048803237499995
mp-23265,GdCl3,-2.6864548424450003
mp-23266,GeI4,-0.2653437194999998
mp-23267,BeCl2,-1.8245791888400005
mp-23268,NaI,-1.275293075
mp-2327,TiZn16,-0.0645993464705882
mp-23270,Th3Bi4,-0.6243411585714286
mp-23274,Ta2Cl5,-1.7098475491142855
mp-23276,InCl,-1.1109699581925003
mp-23279,KBi2,-0.3356134626666668
mp-23280,AsCl3,-1.16320699557
mp-23281,SbI3,-0.3591974312500001
mp-23282,ZrI3,-0.9620046275000004
mp-23283,Sm4Bi3,-0.8049173326190474
mp-23285,CeBi,-0.8148162174999998
mp-23288,AlBr3,-1.1175323131250003
mp-23290,PtCl2,-0.7685590399511111
mp-23291,PbCl2,-1.5421259205066662
mp-23292,HgBr2,-0.4747551216666667
mp-23293,TbCl3,-2.7054981324450003
mp-23294,RuBr3,-0.3216319606250004
mp-23295,RbCl,-2.23520260038
mp-23297,BrF3,-1.2641285408924998
mp-23300,NdBi,-0.9438322650000002
mp-23307,NbCl5,-1.7268220763277773
mp-23309,ScCl3,-2.564096572445
mp-2331,B2Mo,-0.4317250438888879
mp-23310,Yb4Bi3,-0.8225543402380951
mp-23313,InBi,-0.0029619174999999
mp-23317,AsBr3,-0.4627320012500004
mp-23318,BiSCl,-1.061636417128333
mp-23319,RbVCl3,-1.860030776456
mp-23321,Sr4Cl6O,-2.959031975679697
mp-23324,BiSBr,-0.7636029693750004
mp-23326,Ca4Cl6O,-2.889512975073636
mp-23329,Bi2WO6,-1.9578677175
mp-2333,NdPd3,-0.7835675524999992
mp-23330,NaClO3,-1.213023976902
mp-23331,Si3(BiO3)4,-2.4751121257894737
mp-23333,Hg3Cl4O,-0.9134937780362504
mp-23334,Bi2TeO5,-1.655203919218749
mp-23336,CsMnCl3,-1.846468245473241
mp-23339,NaBrO3,-1.0141171467499994
mp-2334,DyCu,-0.2482322400000001
mp-23341,Bi2Pt2O7,-1.3412438421590915
mp-23347,Rb4YbI6,-1.553232344242424
mp-23349,Bi(BO2)3,-2.5852101372500003
mp-23350,Rb2PtCl6,-1.6228415682844444
mp-23352,Ge(Bi3O5)4,-1.7075078295454549
mp-23353,Cu2HgI4,-0.2287727371428567
mp-23355,PAuCl4,-0.9914245590185716
mp-23356,Bi4B2O9,-2.096697911527778
mp-23357,Sr2Bi2O5,-2.363225725787037
mp-23358,Hg5(ClO2)2,-0.7569022101381819
mp-23360,Zn(IO3)2,-1.067330468611111
mp-23363,NaAlCl4,-2.056758308006667
mp-2337,HfCo2,-0.3686822933333336
mp-23370,CuW3Br7,-0.4596853828409082
mp-23373,BaZnCl4,-2.2552253305066667
mp-23375,PNCl2,-0.9612741920761904
mp-23376,GaSeBr7,-0.4832586424826388
mp-2338,TbZn2,-0.3900956499999998
mp-23382,Y4CI5,-1.1250676818333332
mp-23383,Rb2TeBr6,-1.0574006027777776
mp-23384,LiIO3,-1.395089903583333
mp-23386,Sn2SI2,-0.6207376156249997
mp-23388,Bi2(MoO4)3,-1.9664722775
mp-2339,Ti3Pt,-0.6469333224999989
mp-23390,RbCdCl3,-1.819239839956
mp-23392,K4CdCl6,-2.054026835596364
mp-23396,MoNCl3,-1.088667350432
mp-23398,BClF6,-2.153324544529166
mp-23399,Rb2AgI3,-1.1026173230555554
mp-2340,Na2O2,-1.3134257114583334
mp-23400,In(IO3)3,-1.0503745304807688
mp-23403,SbIF5,-2.299062779778571
mp-23405,Cs2TeBr6,-1.1012750795402295
mp-23406,Cs2PtCl6,-1.649673027269119
mp-23407,Hg(IO3)2,-0.8153166536111114
mp-23408,Tl4Bi2S5,-0.7092139550568177
mp-23409,Pr12C6I17,-1.1463025424285718
mp-23410,Nb3Se12I,-0.5595193891015624
mp-23412,SbCl4F,-1.4623790477883336
mp-23413,NbBiO4,-2.524005194166667
mp-23414,Sc4NCl6,-2.317509257903637
mp-23418,Hg3(SCl)2,-0.746897863967143
mp-23419,Sb4Cl2O5,-1.6944341938881822
mp-23423,Bi2MoO6,-1.9007972404861104
mp-23425,Cs2PbCl6,-1.7319874372691189
mp-23426,Al4Bi2O9,-2.867545106416667
mp-23427,Ti3(BiO3)4,-2.5550081492105257
mp-2343,Mg2Sn,-0.1855255622222221
mp-23432,BaClF,-3.6059576148166665
mp-23434,Al2CuCl8,-1.6733642064618182
mp-23436,Cs4PbBr6,-1.587718717429467
mp-23440,Y6C2I7,-1.0905789603333338
mp-23442,KCdCl3,-1.812558194556
mp-23444,AsCl2F3,-1.8952157229316668
mp-23445,Bi2Ru2O7,-1.5640050371590917
mp-23446,GeBi2O5,-1.875881863906249
mp-2345,Dy2O3,-4.01885857675
mp-23450,RbIO4,-1.180195922083333
mp-23451,Cs3Cr2Br9,-1.284596988128079
mp-23452,Sn3BrF5,-2.29244255455
mp-23453,Hg6Sb5Br7,-0.3497997794444443
mp-23457,PBr2N,-0.4169778169045237
mp-23465,Cs2TeCl6,-1.7082965839357855
mp-23467,CsSn2Br5,-1.0688114791163792
mp-23471,K2RuCl6,-1.5921490606177775
mp-23472,Re(AgCl3)2,-0.9337796034696296
mp-23474,AgBi3S5,-0.6743379393287038
mp-23475,Rb2PbCl6,-1.693375592728889
mp-23476,Cd7(P2Cl3)2,-0.8591594536085715
mp-2348,Zr2Au,-0.4161503033333329
mp-23480,Bi2WO6,-1.957870759444445
mp-23481,Cs3Cu2I5,-1.0139776363793105
mp-23482,BaBiO3,-2.2419186977500005
mp-23484,CsAuCl3,-1.402400823542207
mp-23485,Ag2HgI4,-0.2995018123809524
mp-23486,RbNiCl3,-1.539950743456
mp-23487,KIO3,-1.3799918758499998
mp-23488,Tl5Se2I,-0.4513781130859371
mp-23489,CsIO4,-1.1801791446551722
mp-2349,YCd3,-0.3056548920833335
mp-23492,Si(Bi3O5)4,-1.803638541515152
mp-23493,Ce(IO3)4,-1.347942202941177
mp-23494,Ti(Bi3O5)4,-1.821891133484849
mp-23495,K2ZnBr4,-1.4232541901428573
mp-23496,CsAg2I3,-0.7088397407662835
mp-23498,NbSeBr3,-0.8465330959687499
mp-23499,K2SnCl6,-1.846032158395556
mp-2350,LaS,-2.494838484062501
mp-23501,FeBiO3,-1.7782225227499993
mp-23503,Na3InCl6,-1.897413391456
mp-23507,InSn2Br5,-0.7523986818749999
mp-23508,Rb2CuCl4,-1.6836525954342858
mp-2351,TmPt3,-1.0608746583333328
mp-23513,K2PtCl6,-1.5987309428399998
mp-23514,BiSI,-0.6239462368750003
mp-23515,K2CoCl4,-1.7449173868866668
mp-23517,RbPbI3,-1.0085491640000002
mp-23519,Ga4Bi2O9,-2.08308238475
mp-2352,Na2O,-1.4503121337499998
mp-23522,BaZnCl4,-2.2486076084233333
mp-23526,KClO4,-1.1960070877099995
mp-23533,K2OsCl6,-1.5458963728400004
mp-23535,K2ZnBr4,-1.4242214480000004
mp-23536,SbI3Cl8,-0.8142301388400002
mp-23539,KSn2Cl5,-1.6302497742875004
mp-2354,Ti3Hg,-0.1029529599999996
mp-23541,KSn2Br5,-1.03806029975
mp-23543,Hg5(BrO2)2,-0.6026147604545451
mp-23544,Bi4Br2O5,-1.5244239271590914
mp-23549,Bi3B5O12,-2.4450945509583333
mp-23550,KBrF4,-1.9974021912933333
mp-23552,Er(IO3)3,-1.5011952158653843
mp-23558,Ag2BiO3,-0.9289624271527774
mp-23559,In(IO3)3,-1.0453512174038455
mp-23560,Ge3(BiO3)4,-1.9418601542105265
mp-23562,KIO4,-1.1802869188333336
mp-23565,Cr4AgBiO14,-1.5494556690416672
mp-23566,Mn3B7IO13,-2.5961785740178684
mp-23569,AsSe6IF6,-1.2997802043716074
mp-23571,KBa4Bi3O,-1.3080909299166668
mp-23572,KBiP2S7,-0.9032795651834415
mp-23574,SbPCl8O,-1.3640763584910387
mp-23575,AsSe3(ClF2)3,-1.6177368714577889
mp-23576,CsSbClF3,-2.6090565499601723
mp-2358,SmAl2,-0.514889126111111
mp-23582,KLi6BiO6,-1.9935106864642853
mp-23583,Cs4BiSbCl12,-1.7974616300468966
mp-23586,Hg6S4Br3Cl,-0.5665804893399999
mp-23587,HoSeClO3,-2.496837354892292
mp-2359,NdPt5,-0.6936440733333337
mp-23592,Ag2Hg7(As2I3)2,-0.1700792425877189
mp-23597,Sr4Mn3(ClO4)2,-2.617703719707775
mp-23598,SIO3F,-1.621092375094167
mp-2360,CaGe,-0.6671770724999999
mp-23602,TaBi4ClO8,-2.1350722013042858
mp-23609,Zn3B7ClO13,-2.5728626394934726
mp-23612,K3B6BrO10,-2.719599597575
mp-23614,SrNb2Bi2O9,-2.69091835235119
mp-23617,Mg3B7ClO13,-2.9179547038684728
mp-23621,NaBi(PO3)4,-2.5505176812103167
mp-23622,Sm3Si2ClO8,-3.619293713447142
mp-23623,B5Pb2BrO9,-2.5127860098774506
mp-23626,RbLi2(IO3)3,-1.4109034679722223
mp-2363,HfMo2,-0.1709048316666657
mp-23630,NbBi4ClO8,-2.054565151482857
mp-23632,Ca2BN2Cl,-1.7583243577255552
mp-23634,KSbClF3,-2.5884803803883334
mp-23635,TlRe6Se8Cl3,-0.660880332696111
mp-23642,VBiPbO5,-2.0297140832812497
mp-23643,Cd5P3ClO12,-2.200020717570204
mp-23644,Hg3AsClO4,-1.0967545595288886
mp-23645,KBiS(ClO2)2,-2.0093777150161105
mp-23648,Li4Al3Si3ClO12,-3.129685250866377
mp-23651,Na4Al3Ge3IO12,-2.559940253695652
mp-23653,Na3MgC2ClO6,-2.2551202072379484
mp-23655,Na4Al3Si3IO12,-3.0252050895652176
mp-23656,Na4Ga3Si3ClO12,-2.6948736953591306
mp-23657,Na6S2ClO8F,-2.375283040316667
mp-23659,Na4Ga3Si3BrO12,-2.6495723078260864
mp-23660,KNa22C2S9ClO42,-2.28602101398552
mp-23662,LiB(HO)4,-1.9345028674479992
mp-23667,RbP(HO2)2,-2.234926942913928
mp-2367,LaC2,-0.1615068750000006
mp-23671,LaNi5H7,-0.3068232807953848
mp-23672,PH6NO4,-1.5567570335559526
mp-23675,H4BrN,-0.7124980053099996
mp-23689,Na2CoH8(SO6)2,-1.7788288248084
mp-2369,SnPd,-0.5421510162500001
mp-23691,Tl(BH)6,-0.2935444855169234
mp-2370,PrNi5,-0.2612245258333334
mp-23700,RbH2OF,-1.997919055436
mp-23701,CaB8H4O15,-2.633160155353451
mp-23702,LiH2N,-0.6744511090716667
mp-23703,LiH,-0.482520472643333
mp-23704,NaAlH4,-0.234681867413333
mp-23705,Na3AlH6,-0.2651725286719998
mp-23706,YH3,-0.7104692339650001
mp-2371,Ga2Te5,-0.2396439428571426
mp-23710,MgH2,-0.2781644435244447
mp-23711,MgH2,-0.2775092085244448
mp-23713,CaH2,-0.658717047413333
mp-23714,SrH2,-0.6352881254688884
mp-23715,BaH2,-0.5890339565799998
mp-23717,Ca2MgP2(H2O5)2,-2.664515545655589
mp-23718,Ca2MnP2(H2O5)2,-2.5457121749862126
mp-23723,K2CaH2S2O9,-2.350064140671249
mp-23730,NaMgH3,-0.2954465468386661
mp-23736,LiMgH3,-0.3511322531719997
mp-23737,KMgH3,-0.3423897784386664
mp-23738,RbMgH3,-0.3181414853386665
mp-23739,SiH4,-0.110307714396
mp-23740,Mg2PHO5,-2.8037905289009
mp-23742,CsB5(H2O3)4,-2.18194069379068
mp-23743,AlH12(ClO2)3,-1.5622911007145457
mp-23748,MgBHO3,-2.6348866312977783
mp-23749,VH12(ClO2)3,-1.4538846707145452