material_id,pretty_formula,formation_energy_per_atom
mp-1205496,Y2MgSi2,-0.7343020870000003
mp-1205499,Pr2ScSi2,-0.6897681219999996
mp-12055,LaCd2,-0.3763667683333332
mp-1205500,Sm3(AgSn)4,-0.5422003412121209
mp-1205505,ErSiRu2C,-0.6124193759999997
mp-1205506,NdSiRu2C,-0.5703829979999995
mp-1205511,Rb2NiP2,-0.4363299804285717
mp-1205512,KBa2IO6,-2.14674504555
mp-1205516,Er2MgNi2,-0.4001531316666671
mp-1205519,HoSiOs2C,-0.5091024579999995
mp-1205521,CaTlBr3,-1.5985204120000005
mp-1205522,Y2FeSi2,-0.7122304183333327
mp-1205523,Sc2CoGe2,-0.7602441730000009
mp-1205526,TbMn2SiC,-0.4646511888620679
mp-1205527,YSiOs2C,-0.5109220176666653
mp-1205528,SmSiOs2C,-0.4982619086666659
mp-1205529,Tm4Ni2C5,-0.4061285530303035
mp-1205533,TlSnI3,-0.5819542649999999
mp-1205534,Ce2Si2Sn,-0.642005176
mp-1205536,La2Os2I,-0.5976767689999989
mp-1205538,TmFe2SiC,-0.5439488176666657
mp-1205541,NaScTl2F6,-3.173011793714
mp-1205543,TbFe2SiC,-0.5170923860000002
mp-1205545,HoRe2SiC,-0.460488497
mp-1205546,Ho2Co2I,-0.5968048330000002
mp-1205547,Ba2GdTaO6,-3.54999171275
mp-1205548,KSrI3,-1.624865420933333
mp-1205549,Ba2GdTaO6,-3.55396324175
mp-1205551,PrSiRu2C,-0.5514224839999997
mp-1205553,Sr2LuTaO6,-3.6132819330833335
mp-1205554,Tl3GaF6,-2.429896303714
mp-1205557,Ba2UTiO6,-3.51775898975
mp-1205558,HoB3Mo,-0.6283153189999993
mp-1205559,YbInBr3,-1.5364914473333335
mp-1205560,Rb2As2Pd,-0.5025677299999998
mp-1205562,Ho2MgNi2,-0.3920492416666669
mp-1205563,Ho2MgCu2,-0.2359386926666666
mp-1205564,Er2Ge2Ru,-0.8036616029999998
mp-1205567,Y2Br3,-1.5354119913333335
mp-1205569,Ba2UInO6,-3.18417232475
mp-1205574,Cs2KScF6,-3.598679757100207
mp-1205575,Sr2ScOsO6,-2.903797917583333
mp-1205577,Pr2MgCu2,-0.1813254306666664
mp-1205578,NdSiOs2C,-0.4753503039999998
mp-1205579,DySiOs2C,-0.5127945959999991
mp-1205580,ThSiRu2C,-0.6176393610000005
mp-1205581,Ho2CdCu2,-0.3018765909999999
mp-1205582,Sr2CrOsO6,-2.495991801083332
mp-1205583,UMn2SiC,-0.3260449168620681
mp-1205585,Ba2HoUO6,-3.67695072775
mp-1205587,ErPRu2C,-0.6715628077142852
mp-1205589,Pr2MgSi2,-0.6614226496666668
mp-1205595,Ba2TmMoO6,-3.1113402640833328
mp-1205597,Ba2TbMoO6,-3.06890601375
mp-12056,Ba(POs)2,-0.6709805934285711
mp-1205600,Ba2NdTaO6,-3.50367516675
mp-1205603,TbSiRu2C,-0.6165082870000006
mp-1205604,KVCl3,-1.832225456556
mp-1205607,TmSiOs2C,-0.4981747256666665
mp-1205608,SmMn2SiC,-0.4118260955287354
mp-1205610,Cs2P2Pd,-0.5146207806009855
mp-1205611,Ba2UCrO6,-3.293056323749999
mp-1205614,ThMn2SiC,-0.4525002738620685
mp-1205615,La2Co2I,-0.615200969
mp-1205618,TmRe2SiC,-0.4461799156666671
mp-1205619,Nd2CdRh2,-0.6072827429999996
mp-1205622,YPRu2C,-0.6751157663809522
mp-1205624,GdFe2SiC,-0.4879342649999983
mp-1205627,Nb(SeI)2,-0.5713434179375
mp-1205628,Ba2ErMoO6,-3.098545508750001
mp-1205629,Cs3FeF6,-2.96682662309331
mp-1205635,Cs2KPdF6,-2.5311454346002065
mp-1205638,Cs3BrO,-1.4513720260086207
mp-1205641,Rb2P2Pt,-0.5129879084285711
mp-1205644,Er2CdPd2,-0.8224150379999997
mp-1205647,La2ScSi2,-0.6894296059999995
mp-1205648,Rb2NiAs2,-0.3972337120000005
mp-1205649,LiSc(TlCl3)2,-1.9866369711226664
mp-1205650,Ba2TaTlO6,-2.82587393075
mp-1205652,TlNiCl3,-1.1382796539559998
mp-1205654,CeSiRu2C,-0.5795882820000002
mp-1205657,Gd2MgNi2,-0.3592961556666665
mp-1205659,Tm2CoSi2,-0.7895779473333328
mp-1205667,Tl3FeF6,-2.347588573714
mp-1205669,Ba2YMoO6,-3.068049557083333
mp-1205671,Ba2TaFeO6,-3.0640794732500005
mp-1205672,KTl2CrF6,-2.701937344014
mp-1205673,Nd(PPt)2,-0.9670220064285716
mp-1205674,Ba2ScOsO6,-2.889822483250001
mp-1205676,NaSr2OsO6,-2.3467486925833336
mp-1205677,Sr2NbGaO6,-3.0691023950833327
mp-1205678,Ho2MgSi2,-0.7127919346666666
mp-1205681,K2NaPdF6,-2.521006680814
mp-1205683,Cs2KCrCl6,-2.031404379842207
mp-1205684,KScTl2F6,-3.152924592514
mp-1205686,Ba2PrTaO6,-3.48469077125
mp-1205688,Pr(PPt)2,-0.972197891428572
mp-1205689,Nd2CdPd2,-0.7449566560000008
mp-1205690,Sr2NbCrO6,-3.115208666833334
mp-1205691,Ba2ZnOsO6,-2.3044128722500004
mp-1205693,Ba2DyUO6,-3.666541409749999
mp-1205696,Cs2NaCrCl6,-2.000457308042207
mp-1205700,Ba2LaUO6,-3.5767864262500004
mp-1205703,TmSiRu2C,-0.6083160936666673
mp-1205704,HoPRu2C,-0.675102692714286
mp-1205707,Tb2MgCu2,-0.2295312246666668
mp-1205710,Ce2InRh2,-0.7796848149999989
mp-1205711,La2Ru2I,-0.6140200100000002
mp-1205712,YSiRu2C,-0.6162645116666667
mp-1205713,Ba2YUO6,-3.656344393083333
mp-1205714,Rb2P2Pd,-0.5066936184285715
mp-1205716,Pr2MgPd2,-0.6968586286666664
mp-1205718,LaSiOs2C,-0.4600477649999988
mp-1205720,HoMn2SiC,-0.4803380578620689
mp-1205724,Pr2CdRh2,-0.5817479689999999
mp-1205726,Y2Co2I,-0.5874271313333331
mp-1205734,YRe2SiC,-0.4656894456666663
mp-1205739,Li2SnF6,-3.0512144078303702
mp-1205741,TiMnAs,-0.6433894476628347
mp-1205742,Tl3CrF6,-2.470300416714
mp-1205743,NaSr2IO6,-2.191745330083333
mp-1205744,Y2MgGa2,-0.570390999
mp-1205746,Cs3UF6,-3.2256229260933105
mp-1205749,NdSnIr,-0.7909273322222224
mp-1205750,YMgAu,-0.6966298666666665
mp-1205754,Na2CeF6,-3.636641620237777
mp-1205755,TbSnIr,-0.8491960800000002
mp-1205756,DyMgAu,-0.6866922944444442
mp-1205757,Rb2MoBr6,-1.126998072777778
mp-1205759,Ba2YbUO6,-3.6041919174166672
mp-1205761,K2PdBr6,-0.9559245828888888
mp-1205762,La2MgSi2,-0.666050499666666
mp-1205763,DyMgGa,-0.4931332199999999
mp-1205765,BaZnSb2,-0.6000307325
mp-1205767,Sr2MnReO6,-2.642138870644851
mp-1205768,ZrPt8,-0.4824684311111109
mp-1205770,ErMgTl,-0.2976349322222222
mp-1205771,UFe2SiC,-0.3695183389999997
mp-1205772,Cs2MnCl6,-1.8520936661196936
mp-1205773,SmSiRu2C,-0.5952922536666663
mp-1205774,Cs2ReF6,-2.806522315333563
mp-1205775,La4B2N5,-1.5171692516878788
mp-1205777,Ho2CoSi2,-0.7729230009999994
mp-1205778,HoCdAu,-0.6534605033333334
mp-1205779,ErMgIn,-0.3621721866666665
mp-1205780,Er7(TePt)2,-1.0204591009090906
mp-1205788,HoMgTl,-0.3132888877777778
mp-1205791,Ho2Ge2Ru,-0.8030148079999997
mp-1205793,NdRe2SiC,-0.4364547790000003
mp-1205795,LaNi3B,-0.4418528716666671
mp-12058,Er(PRu)2,-1.0315279894285725
mp-1205803,Ba2ErTaO6,-3.610691840749999
mp-1205812,Sm2ScSi2,-0.7357409283333325
mp-1205816,Tb2MgSi2,-0.7176699496666664
mp-1205817,PrSnIr,-0.7720041672222224
mp-1205820,TbMgAu,-0.6845232077777779
mp-1205823,Ba2ScTaO6,-3.60326959925
mp-1205825,Ba2MgMoO6,-2.878094476083332
mp-1205828,YAgGe,-0.6701586166666663
mp-1205829,TbMgAg,-0.2746178111111111
mp-1205833,Ba2NbRhO6,-2.74496884475
mp-1205834,Er2Al4NiGe2,-0.620320891111111
mp-1205835,TbMgGa,-0.4961408488888885
mp-1205836,Ba2LuMoO6,-3.1228974937500014
mp-1205837,Ba2HoMoO6,-3.08959985575
mp-1205839,Dy4Mg3Co2,-0.1647114144444449
mp-1205840,Cs2TcCl6,-1.783607052824674
mp-1205841,Y6FeBi2,-0.4322553611111112
mp-1205843,Er6MnSb2,-0.5353867210727977
mp-1205845,Ba2GdUO6,-3.62779131975
mp-1205847,Cs2PdBr6,-1.0141151050957855
mp-1205848,DyPRu2C,-0.6779257087142853
mp-1205851,DyMn2SiC,-0.473658342862069
mp-1205852,Tb2Cl3,-2.193251114956
mp-1205853,Nd2InAu2,-0.772346847
mp-1205855,LaCrSe2O,-1.9553661651875007
mp-1205857,LuMgIn,-0.3230761811111111
mp-1205862,RbSrI3,-1.6419814208333332
mp-1205863,Rb2ReF6,-2.7988003652377778
mp-1205864,Y2CdCu2,-0.3042506613333337
mp-1205865,Rb2NaPdF6,-2.526602791714
mp-1205869,Lu2CdPd2,-0.8383264560000001
mp-1205871,Dy6FeBi2,-0.4136351366666662
mp-1205874,Lu6FeBi2,-0.4131429199999993
mp-1205877,CsTlO,-1.1694861097270115
mp-1205878,LiLuGe,-0.6928677877777771
mp-1205879,PrCdAu,-0.6451827294444443
mp-1205882,ErRe2SiC,-0.454420795
mp-1205883,Rb2LiHoCl6,-2.4532671151226664
mp-1205889,Yb2InAu2,-0.8232901976666668
mp-1205890,Pr2InAu2,-0.7605891989999997
mp-1205891,NdMgPd,-0.6548122488888887
mp-1205892,Zr6CoSb2,-0.5677787772222239
mp-1205898,Sc6Te2Ru,-0.7259862177777782
mp-12059,Sm(PRu)2,-1.028972940095238
mp-1205902,Li5(CuGe)2,-0.3077074192592594
mp-1205903,NdMgAu,-0.6517273099999998
mp-1205904,Y6MnBi2,-0.4349350199616858
mp-1205905,Dy2Ge2Ru,-0.8007344829999994
mp-1205906,KMnIO6,-1.4720520845683522
mp-1205914,ErBiRh,-0.7427535311111105
mp-1205919,TmMgPd,-0.7028742755555553
mp-1205920,Er3Al3CoGe2,-0.7392816438888895
mp-1205921,CeSiOs2C,-0.5004566010000004
mp-1205925,Sm2InAu2,-0.7897290003333332
mp-1205930,Li5Ga4,-0.3285624625925926
mp-1205933,Sm2CdAu2,-0.7254751603333333
mp-1205934,Ba2YbMoO6,-3.0193066944166675
mp-1205936,HoMgPd,-0.6979219266666669
mp-1205937,PrMgTl,-0.3578421483333333
mp-1205940,HoMgAg,-0.2730571122222219
mp-1205941,LiTmGe,-0.7067799855555555
mp-1205944,Sr2TaVO6,-3.281081775083332
mp-1205946,BaTmFeCuO5,-2.552297384398148
mp-1205949,PrMgIn,-0.4105390827777775
mp-1205950,TbCdAu,-0.664547866666667
mp-1205951,TbMgIn,-0.3946781866666669
mp-1205952,Er3(In2Co)2,-0.3727308599999996
mp-1205953,HoBiRh,-0.7479905466666668
mp-1205954,LaSnIr,-0.8340929383333339
mp-1205955,K5Bi4,-0.3518012438888888
mp-1205959,LuMgTl,-0.2589538911111108
mp-1205960,K2SnF6,-3.01518223146
mp-1205963,LuAgGe,-0.6125914666666661
mp-1205964,Ca2FeH6,-0.6366594390800001
mp-1205974,Er2Al4CoGe2,-0.6358184416666669
mp-1205975,ErMgAu,-0.6826266599999996
mp-1205977,Ba2ErReO6,-3.06947926125
mp-1205979,SmMgAu,-0.6672063544444443
mp-1205981,TbBiRh,-0.7565147111111111
mp-1205985,Zr6Te2Pt,-0.7108966733333335
mp-1205987,Dy2MgCu2,-0.2363737776666667
mp-1205991,LaBi2ClO4,-2.4334317579075
mp-1205992,HfMnF6,-3.787664829719396
mp-1205995,HoMgGa,-0.4883343055555554
mp-1205997,NaUF6,-3.7901491827675
mp-12060,Nd(AsPd)2,-0.852404404
mp-1206000,TmMgTl,-0.286966581111111
mp-1206001,YMn2SiC,-0.4707832445287366
mp-1206002,Er6FeBi2,-0.4166508255555554
mp-1206004,DyU2S3O2,-2.752875918984376
mp-1206006,HoU2S3O2,-2.7555497414843755
mp-1206014,Cs2VCl6,-1.9708485317135631
mp-1206016,PrInPt,-0.9359358427777776
mp-1206017,ThAlCo,-0.5243993038888893
mp-1206019,Ce4SiI5,-1.128674906
mp-1206020,K2Ce(CuS2)2,-1.483845901500001
mp-1206022,TmCdCu4,-0.2554186105555557
mp-1206024,HoInNi4,-0.3971439483333334
mp-1206025,HoAlSi,-0.6187730799999999
mp-1206026,Ba2DyMoO6,-3.079777170749998
mp-1206028,UPdPt4,-0.5585045116666668
mp-1206029,Ba2TmTaO6,-3.6235080340833328
mp-1206034,Lu6MnBi2,-0.3953041288505743
mp-1206039,Rb2SnF6,-3.036695664682222
mp-1206041,Cs3VF6,-3.0580347770933103
mp-1206042,Lu6MnSb2,-0.534977008850575
mp-1206043,TbAgAs2,-0.7560368170833343
mp-1206045,MnAg2SnTe4,-0.1405191195402295
mp-1206047,Ba2LuUO6,-3.708536568750001
mp-1206051,NdAl2Ni,-0.5862187375000003
mp-1206052,Ce2SnPd2,-0.8357219139999998
mp-1206054,Er6FeSb2,-0.551483757777778
mp-1206058,TlCl3,-1.112432743695
mp-1206059,Rb2NaCrCl6,-1.978835122956
mp-1206060,LaMgAu,-0.6634873172222223
mp-1206065,PrIn2Ir,-0.5237545524999998
mp-1206068,InBi2S4Br,-0.8067046615625002
mp-1206072,Zr6CoSn2,-0.4383535094444444
mp-1206084,Cs3PrF6,-3.4840166245933104
mp-1206085,MnCuF6,-2.2375728847193965
mp-1206088,YSi2Ni,-0.8397800458333329
mp-1206093,ThNiGe2,-0.7352481312500005
mp-1206095,SmInCu4,-0.2456282038888885
mp-1206097,Ba2ZnMoO6,-2.5824120502500008
mp-1206098,ZrMnF6,-3.686928140969396
mp-12061,Lu(FeB)2,-0.4778152033333327
mp-1206101,AgPbF6,-1.950543546309167
mp-1206107,Ho2CdPd2,-0.8152389400000004
mp-1206114,ThRe2SiC,-0.4680399170000001
mp-1206116,YFe2SiC,-0.5203914226666655
mp-1206121,DyRu3C,-0.2154353680000014
mp-1206123,AlFe3H,-0.2007251797240002
mp-1206125,Sm(PPd)2,-0.9582181440952382
mp-1206126,Nd(PPd)2,-0.962055187428571
mp-1206127,CeRu3C,-0.242071193000001
mp-1206129,Rb(AsRu)2,-0.3950712934999998
mp-1206133,Ba2MgOsO6,-2.612410918083333
mp-1206134,Ba2CdOsO6,-2.22033217775
mp-1206135,Hf6FeSb2,-0.4404211888888877
mp-1206141,DyRe2SiC,-0.4655548729999992
mp-1206143,PrAl2Ni,-0.5729227687499998
mp-1206148,Rb3DyF6,-3.518005029964
mp-1206152,Si(AgP)2,-0.072623660761905
mp-1206161,TmIn5Rh,-0.3740193961904765
mp-1206164,Tm3Ga5Ni,-0.6654835811111113
mp-1206166,ErCdAu,-0.6490321333333335
mp-1206169,SrCuSi,-0.3384551038888889
mp-1206170,YCr2Si2C,-0.4577337172222222
mp-1206176,Rb2NaCuF6,-2.5950361077140003
mp-1206177,YSnGe,-0.6492191227777783
mp-1206183,TbSiOs2C,-0.514701568999999
mp-1206187,Rb2LiRhCl6,-1.7920352251226668
mp-1206192,Y7(TeAu)2,-0.8505245803030292
mp-1206201,Gd2Co2I,-0.6121566489999992
mp-1206209,TbIn5Co,-0.2408063107142852
mp-1206215,Er4Ni2C5,-0.3914038090909095
mp-1206216,ThCoSi2,-0.8326133775000004
mp-1206218,NdInNi4,-0.3144909516666677
mp-1206219,Sm2CdRh2,-0.6489219203333334
mp-1206229,Sm2Bi,-0.6448102455555554
mp-1206230,RbTlO,-1.1760840562500003
mp-1206233,TbAlGe,-0.6621622533333333
mp-1206235,PrSiI,-1.0750270649999998
mp-1206237,Ba2AgIO6,-1.886868488583333
mp-1206239,Hf6CoSb2,-0.4872275094444439
mp-1206242,YIn5Rh,-0.4131925047619051
mp-1206250,La2CdPd2,-0.7769802950000007
mp-1206255,ErIn5Rh,-0.3859139728571428
mp-1206259,TmMgAu,-0.6816803644444439
mp-1206262,ErInCu4,-0.2823634699999999
mp-1206263,TmMgAg,-0.2685302488888889
mp-1206265,LaSiI,-1.142737605
mp-1206266,K2NaCrCl6,-1.953551970056
mp-1206268,ScIn2,-0.3545806166666665
mp-1206269,ErSiOs2C,-0.5046257549999993
mp-1206270,LuInNi4,-0.413433923333334
mp-1206278,NdInCu4,-0.2237214850000004
mp-1206280,Li3YSb2,-0.8276059088888891
mp-1206286,PrAgGe,-0.6097613811111108
mp-1206287,LuIn2,-0.3586617866666668
mp-1206292,Ba2ErUO6,-3.68648195875
mp-1206295,Dy2NiAs2,-1.2399110439999994
mp-1206300,Ce3(GeRh)4,-0.8983720622727276
mp-1206307,YbInNi4,-0.3437018861111116
mp-1206309,ErCr2Si2C,-0.4548808116666656
mp-1206310,NdCr2Si2C,-0.4308667649999999
mp-1206312,SmCr2Si2C,-0.4494756572222205
mp-1206315,SmCdAu,-0.6587913711111106
mp-1206318,Nd3Sn7,-0.6059980719999999
mp-1206320,RbScCl3,-2.290887615456
mp-1206321,YbTlBr3,-1.630960525333333
mp-1206325,RbCrF3,-2.916224321214
mp-1206326,ErAlSi,-0.6132712433333326
mp-1206327,Th2NiC2,-0.3815957260000004
mp-1206329,ThSiRh,-1.0015404233333325
mp-1206330,DyAlSi,-0.6219523949999998
mp-1206333,TbCr2Si2C,-0.4631516999999998
mp-1206335,PrSiNi,-0.7090205649999994
mp-1206340,ErMn2SiC,-0.4860533718620686
mp-1206346,MgPt7,-0.2977358491666662
mp-1206348,Cs(AsIr)2,-0.4663115715862069
mp-1206349,K(CoP)2,-0.5935250580285718
mp-1206350,K2Te2Pd,-0.8059982352000002
mp-1206353,Zn2GaAgSe4,-0.5766693040885418
mp-1206368,TbPd2Pb,-0.6980563324999993
mp-1206369,ScPd2Pb,-0.659718076249999
mp-1206378,Zn7Tc,-0.0662597868749998
mp-1206381,NdSiNi,-0.7307851416666663
mp-1206382,Tm2Ni2Pb,-0.5331414713333338
mp-1206386,Mg(Co2Ge3)2,-0.2597087039393935
mp-1206393,CeInNi4,-0.3692029908333338
mp-1206399,Rb2LiVCl6,-2.032001424122667
mp-1206405,Cs(PRh)2,-0.7471184730147783
mp-1206406,K(AsIr)2,-0.4578070745999995
mp-1206409,K(FeP)2,-0.518629894028571
mp-1206410,Pb2IOF,-1.661857458488
mp-1206412,Nd2GaCo2,-0.2804401560000002
mp-1206418,Pr(PPd)2,-0.9602877684285716
mp-1206420,Nd(ZnSi)2,-0.3937959859999999
mp-1206421,TbCuSn,-0.6116104116666664
mp-1206423,NdIn,-0.48896008
mp-1206427,KRb2CuF6,-2.585342655514
mp-1206430,DyCu4Pd,-0.3638213449999998
mp-1206435,Ba2DyTaO6,-3.59084460175
mp-1206436,SmAgGe,-0.6513371133333329
mp-1206438,Rb2CuF6,-2.29673230246
mp-1206441,V5B6,-0.8308625200000005
mp-1206443,La3SnC,-0.4941133730000011
mp-1206444,Cs3IO,-1.3860226890086207
mp-1206447,Dy2MgNi2,-0.3827004806666672
mp-1206451,Nd2Co2I,-0.5715472919999997
mp-1206452,Gd2GeBr2,-1.4743747939999992
mp-1206453,Sm2CdCu2,-0.2754609533333337
mp-1206454,Er2CdCu2,-0.3042994380000003
mp-1206465,Ce2In8Rh,-0.417875841818182
mp-1206466,SbPbBrO2,-1.5257978135
mp-1206468,SmIn5Rh,-0.4376834104761902
mp-1206471,Lu7(TeRh)2,-0.8881719363636368
mp-1206472,K2TcBr6,-1.0537775273333334
mp-1206480,Er2NiAs2,-1.2256670579999998
mp-1206485,LaSiPt,-1.153059831666667
mp-1206487,Yb(CdAs)2,-0.6198207013333334
mp-1206490,Nb2B2Mo,-0.6416861213333334
mp-1206494,LuInNi,-0.4988952088888894
mp-1206495,Pb2BrOF,-1.757512842488
mp-1206497,Cs3CoF6,-2.7097585305933105
mp-1206500,Sc6MnTe2,-0.5932199421839088
mp-1206510,Zr6NiSn2,-0.443979847777778
mp-1206511,Cs2ZrI6,-1.2585506950957854
mp-1206512,PrIn2Rh,-0.6046486362500003
mp-1206514,Mg3AsN,-0.8110498624760005
mp-1206516,Lu3InC,-0.5731839739999991
mp-1206518,RbFeCl3,-1.536728617456
mp-1206521,La(MgSi)2,-0.4785020123333332
mp-1206522,Yb(ZnGa)2,-0.3919504153333332
mp-1206523,Rb2MnF4,-3.004367031482168
mp-1206525,SrAsAu,-0.9289891088888886
mp-1206527,TbSbPd,-1.084002481666667
mp-1206528,Cs2MnF4,-2.989248583033892
mp-1206529,Rb(PIr)2,-0.6379592069285721
mp-1206533,DyCr2Si2C,-0.4610027766666664
mp-1206535,Cs2RbCuF6,-2.576102610050208
mp-1206536,Ba2InSbO6,-2.545652497249999
mp-1206540,TbMgTl,-0.3336481688888888
mp-1206542,DyCdAu,-0.6627994322222217
mp-1206544,SrTl2Pt,-0.4612696041666666
mp-1206546,Cs2AgF6,-2.1318550540372665
mp-1206552,BaBiBrO2,-2.226042255499999
mp-1206553,Rb2LiRuCl6,-1.7352225721226666
mp-1206554,Tb2MgNi2,-0.3709738586666674
mp-1206555,Dy2CdCu2,-0.301328514
mp-1206558,Cs2As2Pt,-0.502847861172414
mp-1206564,SmRe2SiC,-0.4570510406666656
mp-1206565,Pr2CdAu2,-0.7020030430000006
mp-1206568,Cs2PdCl6,-1.5876504528246744
mp-1206580,GdSnGe,-0.6408125666666665
mp-1206581,Sm2Ge2Rh,-0.9068007293333338
mp-1206583,CeRe2SiC,-0.4409805460000001
mp-1206585,Ce2InAu2,-0.6706099479999998
mp-1206595,LiTiSe2,-1.2246206328385414
mp-1206597,CeAlSi,-0.5839520983333326
mp-1206600,K(AsRu)2,-0.4001523825999996
mp-1206604,NdCdPd,-0.6750844466666663
mp-1206607,La2AsI2,-1.5864950580000006
mp-1206608,K2VCl6,-1.91902088284
mp-1206614,Dy2Co2I,-0.5992548980000002
mp-1206617,Er7(TeIr)2,-0.9301969736363624
mp-1206619,Dy7(TePt)2,-1.0149879854545454
mp-1206625,Nd2Ge2Ru,-0.7341474649999995
mp-1206636,SrTl3,-0.2631574891666668
mp-1206638,NiSn2Au,-0.2364002574999997
mp-1206641,KTl2GaF6,-2.663667765014
mp-1206643,NdMgTl,-0.3564740722222225
mp-1206644,Ba2ScNbO6,-3.4860868232499995
mp-1206645,Sr2TiMnO6,-3.0390488791448504
mp-1206651,LaCoSi2,-0.7332730812500001
mp-1206662,Cs2TiI6,-1.1269310117624525
mp-1206667,PrNiBi,-0.641543098333333
mp-1206668,DyNiAs,-1.0504240700000007
mp-1206674,YCdAu,-0.6736219522222223
mp-1206679,YBiPt,-1.0291924511111112
mp-1206681,ScBiPd,-0.824194864999999
mp-1206685,NdNiAs,-1.0225768633333343
mp-1206686,TbNiBi,-0.6766733466666661
mp-1206687,PrNiAs,-1.0105404816666674
mp-1206689,Cs2NiAs2,-0.4052005431724133
mp-1206691,TbCu4Pd,-0.356907205
mp-1206704,MoPd2,-0.1056608399999999
mp-1206712,ErNiBi,-0.6628039033333332
mp-1206713,Al2Zn,0.0077917883333332
mp-1206716,TbNiAs,-1.053584473333333
mp-1206717,LaBiPd,-0.9931713216666668
mp-1206718,YNiAs,-1.0578410444444444
mp-1206720,PrBiPd,-0.9392753816666672
mp-1206722,Ce3(SiNi)4,-0.7830465868181823
mp-1206730,Sr2MgMoO6,-2.8989451214166664
mp-1206739,ErFe2SiC,-0.5384548259999988
mp-1206742,ErHSe,-1.471575083654583
mp-1206743,HfS,-1.8384828815625005
mp-1206744,TmBiPd,-0.9110950244444442
mp-1206747,LuTl,-0.2549452599999999
mp-1206749,HoNiAs,-1.0428776100000003
mp-1206750,CrPt,-0.1045822749999993
mp-1206754,Pr(GePd)2,-0.8401704109999997
mp-1206755,CeTl,-0.2437149124999997
mp-1206759,LiZrS2,-1.824117513229167
mp-1206762,Tb2NiAs2,-1.2426394539999996
mp-1206763,Ba2ScUO6,-3.68493599925
mp-1206764,CaAgSn,-0.5333164050000003
mp-1206768,Rb2NaVCl6,-2.0171362139560003
mp-1206769,Tm2MgNi2,-0.4084407600000005
mp-1206772,ThBRh3,-0.8983471216666657
mp-1206773,TmRu3C,-0.2616466886666672
mp-1206776,Tb(PPd)2,-0.9401880094285708
mp-1206779,ThSiIr,-1.0279835333333338
mp-1206780,Ti2Sb,-0.4685556133333328
mp-1206784,Tb2CdNi2,-0.4307456050000006
mp-1206785,Nd2GaNi2,-0.464882484000001
mp-1206788,Tb2CdNi2,-0.4326712360000002
mp-1206794,LiAu,-0.5353907383333336
mp-1206795,SmFe2SiC,-0.4635441676666659
mp-1206799,Ba(GaH)2,-0.4926005454479998
mp-1206800,ErCuSn,-0.5967867983333329
mp-1206803,Y2CI2,-0.9854580073333332
mp-1206804,Tm3(In2Co)2,-0.3737342255555557
mp-1206808,Cs2LiAlF6,-3.4590790759668737
mp-1206809,DyMgTl,-0.3240576133333337
mp-1206811,NdIn2Rh,-0.6087796924999997
mp-1206813,Er2MgSi2,-0.7076746026666662
mp-1206817,TlVCl3,-1.4555736099560002
mp-1206819,ZnIr,-0.1941453275000002
mp-1206820,HoRu3C,-0.2307726000000002
mp-1206822,Pr3SnN,-0.9965808754759996
mp-1206825,Lu2SeO2,-3.431663464968751
mp-1206826,La4SiI5,-1.3332533870000003
mp-1206830,Cs(CoAs)2,-0.3883592195862071
mp-1206831,Lu3Ga5Co,-0.6161244961111108
mp-1206836,Rb2TcI6,-0.7413998627777774
mp-1206841,Er6CoBi2,-0.4563326794444443
mp-1206843,LuHSe,-1.42932733032125
mp-1206848,Cs2TcI6,-0.7909213684291182
mp-1206849,SrPAu,-0.907292801746032
mp-1206850,Dy(SiAg)2,-0.3862219393333334
mp-1206854,TiMnP,-1.0173942305199768
mp-1206856,DyB3Mo,-0.6157249050000004
mp-1206857,SmSnIr,-0.8179596100000003