material_id,pretty_formula,formation_energy_per_atom
mp-1103176,YSiPt,-1.197631692777777
mp-1103180,TaPRu,-0.7783530320238098
mp-1103189,LaTeCl,-2.166527843586666
mp-1103194,SbSBr,-0.6620305960416673
mp-1103195,Sm2In8Pd,-0.4345154842424237
mp-1103212,TaRh2,-0.5882626991666662
mp-1103213,SbTeOs,-0.0854434600000004
mp-1103217,HoAsSe,-1.422137526614583
mp-1103226,TbS2,-2.1695964395833336
mp-1103227,HfCoSi,-0.8554769741666668
mp-1103228,BiIrSe,-0.2519276249479165
mp-1103232,DyAsPt,-1.2050698266666668
mp-1103238,LuGaPd,-0.8697867824999997
mp-1103243,NbNiAs,-0.526921740833334
mp-1103248,TiSiIr,-1.0038207491666675
mp-1103249,Ho3(CuSn)4,-0.5037570454545449
mp-1103252,ZnPd2,-0.464550229166667
mp-1103253,UB4Ru,-0.5325245947222221
mp-1103255,UB4W,-0.5011849072222235
mp-1103261,SiPtSe,-0.6514203499479164
mp-1103265,Y3(CuGe)4,-0.6384846563636359
mp-1103272,ZrSiNi,-0.9105919983333332
mp-1103275,BaYCuS3,-2.038369667951389
mp-1103280,YGaIr,-0.8738885652777787
mp-1103289,LuNiP,-1.2088754661904766
mp-1103293,ZrSiOs,-0.832458616666667
mp-1103295,AlF3,-3.8891621771425
mp-11033,TbAl7Au3,-0.5147635386363635
mp-1103310,NbPRu,-0.8383277103571428
mp-1103315,Be2Ru,-0.3320920233333335
mp-1103319,DyAlPt,-1.151898014166667
mp-1103320,PrGeIr,-0.7989338566666669
mp-1103324,GdPO4,-3.4676948314285703
mp-1103346,NbGePt,-0.5310970024999998
mp-1103351,Na4Mg(SiSe3)2,-0.9593476267227564
mp-1103353,YGaPt,-1.1023754802777777
mp-1103379,Cs2SnSe3,-0.93324652548222
mp-1103382,DyAlPd,-0.8830323683333337
mp-1103387,NdPO4,-3.458228029761905
mp-1103389,Sr3Ta2ZnO9,-3.23635714175
mp-1103391,Tb2Al,-0.2821954991666662
mp-1103395,La2Au,-0.5528834841666667
mp-1103397,BaSnF4,-3.4018290366266672
mp-1103398,TmAsSe,-1.392256141059028
mp-11034,PrAl7Au3,-0.5170978122727273
mp-1103411,Dy2Au,-0.6328774450000001
mp-1103414,ZrSiPd,-1.008339703333333
mp-1103415,Sm3(CuGe)4,-0.6230334545454542
mp-1103421,Dy2Pt,-0.9395473275000004
mp-1103423,ErNiP,-1.2207991836904764
mp-1103425,ErCo3Si2,-0.7312519533333331
mp-1103440,GdZnRh,-0.7203369199999999
mp-1103450,SmAlPt,-1.0926198961111109
mp-1103453,Sr2LiGe3,-0.5580566766666664
mp-1103463,SmGeRh,-0.9254585527777776
mp-1103465,TiBe3,-0.1914934554166662
mp-1103471,LaAsS,-1.8794496660416664
mp-1103472,Na2UF8,-3.469702189956364
mp-1103473,CsCrP2S7,-0.9952307006317176
mp-1103476,DyB12,-0.2500817715384613
mp-1103487,CeGaPt,-1.0052036958333328
mp-1103503,GdSnPd,-0.926196750833333
mp-1103507,Ho(Ni2As)2,-0.6293452214285722
mp-1103508,Sr3MgTa2O9,-3.443654570305556
mp-1103511,Lu(Al2Cu)4,-0.2885550415384613
mp-1103519,KCuO,-1.2288514789166662
mp-1103520,Cs2SiS3,-1.4725854525395117
mp-1103527,BaBClF4,-3.4455740566219046
mp-1103536,Y3Zn11,-0.3466562582142854
mp-1103539,Cs2CdI4,-1.1809712286945813
mp-1103541,Lu2Ga8Co,-0.4560144568181818
mp-1103548,Ce3(SiPd)4,-0.9026465786363638
mp-1103550,NdGaNi,-0.5562924683333333
mp-1103558,PrGaNi,-0.5352741016666668
mp-1103561,Er2MgSe4,-1.6914912132440476
mp-1103570,Ca5Pt2,-0.7076838014285711
mp-1103572,NdGaPt,-1.0204593158333328
mp-1103576,HoGaCo,-0.5042910400000006
mp-1103590,MgSe2,-0.8297776460069445
mp-1103596,Ce(Ge2Rh3)2,-0.7596289459090907
mp-1103604,La2NCl3,-2.575972568693333
mp-1103607,BiPtSe,-0.3448324641145834
mp-1103608,ZrGePd,-0.9060896925000002
mp-1103614,Ce2In8Pt,-0.4342383372727273
mp-1103629,CeNiP,-1.1701524878571423
mp-1103641,NdGeIr,-0.8272897516666653
mp-1103650,RbCu2I3,-0.5985558245833333
mp-1103651,NdSbSe,-1.3927120832812498
mp-1103655,YNiGe,-0.7988947644444444
mp-1103658,LaS2,-2.304636319583333
mp-1103664,BaScCuS3,-1.9528162898958328
mp-1103670,TbGaNi,-0.6318447333333328
mp-1103685,Rb(MoSe)3,-0.7154524556473214
mp-1103697,Bi2Pd3Se2,-0.3684562292410714
mp-11037,Lu(Al2Fe)4,-0.4280961746153841
mp-1103709,Rb2Cd(IBr)2,-1.2843859357142855
mp-1103718,Al(VS2)4,-1.387335718846154
mp-1103722,Al2PbS4,-1.3257600560714289
mp-1103730,Na4Mg(GeSe3)2,-0.8852686659535257
mp-1103732,Yb(H2N)2,-0.8391249137009525
mp-1103744,CsYZnTe3,-1.1041062110440614
mp-1103746,GdGePt,-1.1136034491666666
mp-1103757,Cu5Sn2Se7,-0.2846849068861609
mp-1103758,CeAu6,-0.3728198728571423
mp-1103771,BaLi2MnV2O8,-2.6145847349248936
mp-1103784,Tb(Ni2As)2,-0.6297169699999999
mp-1103785,Pr3Al11,-0.3769695460714288
mp-1103787,Si7(Ni2Au)2,-0.3338782150000007
mp-1103788,Sr(NiP2)2,-0.6421226844217683
mp-1103791,Ho2MgSe4,-1.6918862475297618
mp-1103792,Nb2O2F3,-3.070436858724288
mp-11038,Zr6Al2Fe,-0.3024313177777789
mp-1103808,La4H9,-0.7218401513523077
mp-1103810,Y3AlC3,-0.3919968785714281
mp-1103811,KV2Fe(AgO4)2,-1.878948138190477
mp-1103812,V4GeS8,-1.2330916165384616
mp-1103816,BaGaH5,-0.346310860442857
mp-1103821,Cu5Sn2Te7,-0.1465611814285711
mp-1103835,Lu(MnSn)6,-0.1368271144562341
mp-1103837,HoZn12,-0.1798015453846155
mp-1103838,Pd2PbO4,-1.0846424599999998
mp-1103842,P4Os,-0.3800516935238088
mp-1103846,Na(MoSe)3,-0.6236752895758926
mp-1103851,Ce3Pd4,-0.7306755785714287
mp-1103853,Tb(Mo3S4)2,-1.2531674330000009
mp-1103857,U(Mn2P)2,-0.5812046436805076
mp-1103863,Ho3Pt4,-1.2413031407142856
mp-1103865,BaFe2(PO4)2,-2.718621445164836
mp-1103869,KCr5Te8,-0.3150677766428568
mp-1103877,Nd3GaCo3,-0.2105632035714281
mp-1103893,Lu2MnSe4,-1.439297868432882
mp-1103896,Gd3BiO3,-3.05292882125
mp-1103912,CsSO4,-2.006732826842672
mp-1103916,TmZn12,-0.169510181025641
mp-1103919,CeMg12,-0.0009110580769228
mp-1103929,Yb(Ga2Cu)4,-0.2186152874358975
mp-1103936,Er(MnSn)6,-0.1448539306100804
mp-1103938,Sc(FeSn)6,-0.1071055919230762
mp-1103940,Li6PBrO5,-2.418354583447803
mp-1103943,ErGa3Ru,-0.5835938493333335
mp-1103947,La2H5,-0.712757061157143
mp-1103956,K(TeMo)3,-0.4846665118571422
mp-1103963,Lu3Pd4,-1.0019616021428572
mp-1103970,FeSO4F,-2.1616740695449983
mp-1103974,La(Mo3S4)2,-1.3002552959999991
mp-1103975,YbC6,-0.0841146352380966
mp-1103979,Nd5Ru2,-0.2190366128571424
mp-1103982,Lu2CdSe4,-1.4972365827678575
mp-1103985,Nd3Pt2,-0.9330241686666672
mp-1103989,Nd(Mo3S4)2,-1.2651404296666668
mp-1103999,Ba3InHg10,-0.377191685
mp-1104,LaMg,-0.1118098241666665
mp-1104008,NdGa6,-0.3435267735714283
mp-1104011,CsGdCdTe3,-1.1049283471551732
mp-1104019,Y3Pd4,-0.926796846428571
mp-1104024,Cs2GeSe4,-0.7836064536052955
mp-1104032,Lu3Ga8Ir3,-0.6272370057142851
mp-1104036,Gd3Se2NO,-2.4285200561882143
mp-1104042,Sr2Zn2As3,-0.7841098111904762
mp-1104046,Tb3Se2NO,-2.4341612426167853
mp-1104047,Al4Tc,-0.3722952860000001
mp-1104050,Y(AlC)3,-0.287382358333334
mp-1104052,Pr9Ga4,-0.3598391226923075
mp-1104054,Y(Ni2P)2,-0.8250300264965996
mp-1104060,Nd2H5,-0.6852775668714283
mp-1104062,Sr(GaSe2)2,-1.0545368058630953
mp-1104066,TbB12,-0.2480172200000007
mp-1104067,TiBe12,-0.147748610769231
mp-1104069,Y(Ni2As)2,-0.6296653154761904
mp-1104070,PrGa6,-0.3455320107142852
mp-1104074,Sr3Pt2,-0.7494218186666662
mp-1104088,Tb3Pd4,-0.927802451428572
mp-1104089,Hf(Ni2As)2,-0.4957467442857149
mp-1104100,Nd3Al11,-0.3771168907142857
mp-1104102,Yb(Ni2As)2,-0.5781272845238092
mp-1104104,Be12Fe,-0.0458700246153846
mp-1104116,La2H5,-0.7130042475857142
mp-1104117,Sr(Cd2Pt)2,-0.4641711309523809
mp-1104121,Li2La2Si3,-0.6296912426190475
mp-1104130,Ba(P2Au)2,-0.4750649763265312
mp-1104135,CaH2F4,-2.9387058074285712
mp-1104136,Er3Pt4,-1.2549670592857145
mp-1104137,Tb(NbSn)6,-0.3223401115384628
mp-1104139,Ta5(NiP)4,-0.7835965941758244
mp-1104141,Ga2PbSe4,-0.585389397053571
mp-1104144,Li2Sm2Ge3,-0.7028131378571426
mp-1104158,Pr3Rh2,-0.5927624689999997
mp-1104159,Sm5Ru2,-0.2692058873809517
mp-1104160,Pr5Ir2,-0.483633370714286
mp-1104161,Dy3Zn11,-0.3365960010714285
mp-1104164,Ba3Au2,-0.6060254966666666
mp-1104165,MnAl12,-0.0918782176657827
mp-1104166,Sc2CdSe4,-1.3913451820535714
mp-1104171,Yb(GaSe2)2,-1.0101860144345238
mp-1104177,Pr3Pt2,-0.9053222630000004
mp-1104181,Ni(BW)3,-0.4229657821428572
mp-1104182,MoPO5,-2.411208202831634
mp-1104183,Mn(BiSe2)2,-0.3849538634328817
mp-1104184,Pr3Pd4,-0.7954605471428563
mp-1104199,Nd3Pd4,-0.8198419121428567
mp-1104206,Ho3Pd4,-0.9568830642857142
mp-1104210,Ho3Ga9Pd2,-0.6476006435714287
mp-1104221,Ho(Ni2P)2,-0.8321164524489808
mp-1104225,Lu3Ga9Pd2,-0.6058631592857137
mp-1104232,K3Ca(PO4)2,-2.756079890795918
mp-1104233,Ce2Te5,-1.4482667914285716
mp-1104242,K(MoSe)3,-0.7074780735758921
mp-1104255,Sb2F13,-2.145733460698
mp-1104257,Ba6Os2N6O,-0.9457599690353332
mp-1104268,Cs3Bi2Cl9,-1.863640031652364
mp-1104269,Er(Al2Cu)4,-0.2999903561538461
mp-1104279,Tb3GaCo3,-0.338138407142858
mp-1104289,LuB12,-0.2463661161538456
mp-1104290,Ti3H3Au,-0.5130380051228575
mp-1104293,K2AgF4,-2.3718631255847624
mp-1104294,Ce3Pt4,-1.0874826164285716
mp-1104297,Yb3Ga9Pd2,-0.61932591
mp-1104303,La3Ir2,-0.687823739
mp-1104310,Tb3Ga8Au3,-0.5569818871428568
mp-1104311,Sm3Pd4,-0.864546746428571
mp-1104316,CeSbPt5,-0.7054606464285718
mp-1104320,Ti4GaS8,-1.6456084588461528
mp-1104325,Tb3Zn11,-0.3401534839285714
mp-1104331,Li2Nd2Ge3,-0.7063058261904764
mp-1104337,Y(VSn)6,-0.2379100387179485
mp-1104363,K3ScV2O8,-2.708429423857144
mp-1104366,Ti4NiS8,-1.621383012692308
mp-1104368,Li2Pr2Ge3,-0.7051947419047622
mp-1104378,Sr(AlS2)2,-1.8384609391666675
mp-1104386,Li6PClO5,-2.497247320621648
mp-1104388,Y3Pd2,-0.7320940019999995
mp-1104393,LuZn12,-0.157976210769231
mp-1104395,Sm3Al11,-0.3702696207142857
mp-1104396,La5Ir2,-0.5585629871428576
mp-1104397,Yb5Pd2,-0.6098578576190476
mp-1104399,Dy3Pd4,-0.9417349307142858
mp-1104406,Sc2Si2Pt3,-1.1914110664285715
mp-1104411,Hg3Bi2(SCl4)2,-1.1128372481553332
mp-1104417,La5Ru2,-0.2727987185714288
mp-1104424,Ba8Sb4H2O,-1.2210399832326664
mp-1104426,Nd3Ga10Ni,-0.5513940457142853
mp-1104435,La3Pd4,-0.8471174228571426
mp-1104448,Fe(BO2)2,-2.5300220384523806
mp-1104449,Pr(Mo3S4)2,-1.2673510666666667
mp-1104451,SmGa6,-0.33142894547619
mp-1104453,Ba2Cd2As3,-0.7713119292857142
mp-1104454,Ta4Ga(TeSe)4,-0.5839868430288467
mp-1104458,TbGa6,-0.3082817599999993
mp-1104461,TbGa3Ru,-0.5876745119999991
mp-1104469,CsGdZnTe3,-1.111803009655172
mp-1104473,KCr5Se8,-0.6421368422678567
mp-1104486,Tm3Ge4,-0.7573222257142851
mp-1104493,TbZn12,-0.1883983899999999
mp-1104495,La3Rh2,-0.6719343883333333
mp-1104497,La2Ga10Ni,-0.4924178807692309
mp-1104500,Sm5Ir2,-0.5625174580952371
mp-1104503,YGa3Ru,-0.5890341266666667
mp-1104514,Lu3Ge4,-0.7261937535714286
mp-1104517,Yb3Ga9Pt2,-0.6410135221428571
mp-1104519,Tm(Ni2As)2,-0.6246365676190483
mp-1104525,NdAu6,-0.4153862421428574
mp-1104526,Sc(Ni2As)2,-0.5883684449999994
mp-1104534,DyGa6,-0.298487414285714
mp-1104547,HoGa3Ru,-0.5858705659999999
mp-1104551,DyZn12,-0.184869507692308
mp-1104568,Ba9In4H,-0.3325899963299998
mp-1104570,Yb(In2Au)2,-0.4095913302380956
mp-1104571,Ba6Re2N6O,-1.104774119035334
mp-1104579,Ce2H5,-0.6211473232999997
mp-1104585,HoB12,-0.2510506261538464
mp-1104593,Tb3Ga8Rh3,-0.7161512721428563
mp-1104598,ErB12,-0.251554324615385
mp-1104603,Ce2Br5,-1.8126479914285711
mp-1104604,Na2SrSn4,-0.3670781095238093
mp-1104605,Nd5Ir2,-0.5121672921428565
mp-1104609,Ba(Cd2Pt)2,-0.4665214985714284
mp-1104611,Gd3CI3,-1.030962588571428
mp-1104636,Er(AlC)3,-0.3140451250000008
mp-1104639,YbGa6,-0.2833710602380946
mp-1104652,Nd5Co2,-0.066608882857144
mp-1104658,Sm(Re2Si)2,-0.4542813297619038
mp-1104660,Bi(PdO2)2,-1.1554044464285709
mp-1104661,Ca3Pd2,-0.6455757003333332
mp-1104662,Yb5Pt2,-0.848272871904762
mp-1104663,Cs(MoSe)3,-0.726024976423183
mp-1104664,Dy3Pt4,-1.2273959371428569
mp-1104669,Ca5Pd2,-0.5067207914285713
mp-1104675,Tm3Pd4,-0.9837135000000004
mp-1104676,Os(SeBr6)2,-0.1385765509791667
mp-1104680,Cr2FeO4,-2.261373895714285
mp-1104686,Cs4Au6S5,-0.8989344718232762
mp-1104693,LiCa2HC3,-0.2735777150409524
mp-1104703,Sr2NiClO3,-2.29430107147762
mp-1104707,Na(GeP)3,-0.1736659951020403
mp-1104709,Sm(MnSn)6,-0.1411954547126441
mp-1104717,Na2AgF4,-2.336343641870476
mp-1104739,Ho(GaFe)6,-0.3201579669230767
mp-1104741,Tb(Al2Cu)4,-0.313250353076923
mp-1104743,Nd3Rh2,-0.6258819580000003
mp-1104753,La3Pt2,-0.972557545666666
mp-1104774,Er3Pd4,-0.9696779707142856
mp-1104777,Gd3SbO3,-3.116663584821428
mp-1104792,MnBe12,-0.0625149730503983
mp-1104798,Th(Al2Cu)4,-0.2819952130769235
mp-1104800,Sm3Pt4,-1.1359123242857143
mp-1104803,Dy(AlC)3,-0.2908508792857154
mp-1104804,Ba2Cd2Sb3,-0.6943947785714286
mp-1104806,Gd(AlC)3,-0.2618471492857139
mp-1104815,LaMg12,-0.0512818349999999
mp-1104821,Pr5Co2,-0.0460464871428568
mp-1104843,ZnCu2SiSe4,-0.3970189355468747
mp-1104848,Yb(Al2Cu)4,-0.2807857558974355
mp-1104851,GdGa3Ru,-0.5807852093333338
mp-1104853,Zr(Ni2As)2,-0.5499403085714292
mp-1104854,Ni3(PbS)2,-0.5145970151785723
mp-1104856,La3Pt4,-1.14121351
mp-1104864,Tb3Pt4,-1.2113879285714293
mp-1104872,Cs3As2Cl9,-1.693576065223793
mp-1104877,Lu3Pt4,-1.285608973571429
mp-1104880,Lu5Re2C7,-0.4369300585714281
mp-1104888,Zn(AgI2)2,-0.4231724573809524
mp-1104905,TmB12,-0.2515859925641024
mp-1104926,Sr2SiS4,-1.950945268690476
mp-1104937,Pr5Ru2,-0.1911772557142857
mp-1104954,Ho(Al2Cu)4,-0.3027353084615383
mp-1104960,Sc3(CuSi)4,-0.6189540459090908
mp-1104964,Lu(Ni2As)2,-0.6157320928571427
mp-1104966,CsGdTe4,-0.9588279029885064
mp-1104974,Cr5InSe8,-0.5064038891964283
mp-1105,BaO2,-2.1710110575
mp-1105001,Tm3Pt4,-1.2687088642857145
mp-1105005,Ni3Se4(ClO5)2,-1.1800454204418422
mp-1105019,DyGa3Ru,-0.5874762119999996
mp-1105040,Ta6Zn7,-0.0853319780769226
mp-1105044,Nb6Ni7,-0.2109558676923079
mp-1105051,Dy(MnSn)6,-0.1472898467639265
mp-1105057,Yb3Pd4,-0.8276085007142855
mp-1105062,Er(Ni2P)2,-0.8363258967346943
mp-1105083,Th3Pd4,-0.824313355
mp-1105091,CoBiAsO5,-1.6975406945312494
mp-1105094,TlHgCl3,-1.133769604956
mp-1105095,BaP2,-0.804206374047619
mp-1105097,Ti4CoS8,-1.6206518484615389
mp-11051,NaSn,-0.2228989656249997
mp-1105101,Ba9In4,-0.2836990592307691
mp-1105102,Sm3GaCo3,-0.2639182271428574
mp-1105117,Ni3Sb4(OF)6,-1.988222883138948
mp-1105126,SrMn7O12,-2.145904393798644
mp-1105128,Ho(Co2B)6,-0.3478308663157897
mp-1105133,Ho3Si2(SnRh3)3,-0.9081753441176468
mp-1105134,AsPd3,-0.3674208793750004
mp-1105136,YTl(PSe3)2,-0.6295983719538683
mp-1105138,SrFe4(CuO4)3,-1.616223490583333
mp-1105139,Zr3Sb,-0.4975902006250008
mp-1105141,TbTl(PSe3)2,-0.6321765306205357
mp-1105142,TlSb(PSe3)2,-0.2035636676205364
mp-1105143,NaIn(GeO3)2,-2.138843291749999
mp-1105151,Co3Se4(ClO5)2,-1.297414293073422
mp-1105162,BaFe2(PO4)2,-2.7105600890109893
mp-1105170,SnBr2,-0.776895527777778
mp-1105178,Er2Sn5,-0.4880307042857136
mp-1105186,Cu3B5Pt9,-0.2104462289215689
mp-1105187,CuPS3,-0.6200735250892861
mp-1105189,Cu2AgPS4,-0.5701558480505948
mp-1105201,Ba5In4Te4S7,-1.5100263715937507
mp-1105202,Ba2InBiSe5,-1.2091308779687495
mp-1105210,ScAlAu,-0.7605118144444449
mp-1105212,Rb2AgPS4,-1.073013294300596
mp-1105213,ErTl(PSe3)2,-0.615033328620536
mp-1105218,NaOsO3,-1.6656343382499998
mp-1105223,ZrF4,-4.025635436451999
mp-1105235,BH(PbO2)2,-1.9370772302441663
mp-1105239,DyTl(PSe3)2,-0.6272584786205357
mp-1105248,Sm3Bi4Au3,-0.7053931159999998
mp-1105252,Pr3Bi4Au3,-0.7414437234999994
mp-1105253,Gd(Re2Si)2,-0.4656189335714304
mp-1105256,LaCu4P3,-0.4918755263392853
mp-1105259,La2InSi2,-0.6920292654999998
mp-1105260,Tb4InGe4Rh,-0.8531318750000004
mp-1105268,Ba3Rh(CN)3,-0.696632891214
mp-1105272,Sr2ZnWO6,-2.6831817410833336
mp-1105287,Ti4Pb2O9F2,-3.136437982566469
mp-1105294,Ca5(GePd)6,-0.793892939117646
mp-1105300,TlSb(PS3)2,-0.7029404580892858
mp-1105302,SrP2,-0.7886209934920632
mp-1105309,Ta5GeB2,-0.5881255689583327
mp-1105330,Cs5U2S4ICl8,-2.0161737506617583
mp-1105333,La3Bi4Au3,-0.8232370410000002
mp-1105343,SrMn7O12,-2.147480943798643
mp-1105368,NbAlBr8,-0.9806434359999996
mp-1105386,YbH3CN3,-0.7953192724583324
mp-1105392,Ce3Bi4Pt3,-0.8612675054999996
mp-1105395,Ca2ScOsO6,-2.89954729925
mp-11054,RbSn,-0.2872883018749999
mp-1105400,Nd3Bi4Au3,-0.7300442009999998
mp-1105406,BaP3,-0.6591139145535712
mp-1105411,LiCr(GeO3)2,-2.240976135416666
mp-1105449,SmTl(PSe3)2,-0.642935153453869
mp-1105453,SbPbF7,-2.723821053703334
mp-1105456,HgAs2H2F14,-2.219983790731579
mp-1105460,Tb5(MoO6)2,-3.371289021842105
mp-1105466,Dy2SnAu2,-0.8430408050000004
mp-1105469,Mg2VB2Ir5,-0.5129022268333344
mp-1105479,Dy3Pt,-0.7076759712499996
mp-1105496,Rb2Hg3Se4,-0.5802054088194445
mp-1105499,Lu5(TeAu)2,-0.9690255072222216
mp-11055,CsSn,-0.3067369039655174
mp-1105527,ZnCu2GeS4,-0.7771533490625004
mp-1105528,Pr5As2ClO10,-3.2156488172644435
mp-1105535,Ba2P7Br,-0.7792327750000005
mp-1105536,BaU2Te5,-0.9571350075000008
mp-1105540,CeSiIr2,-1.0027837418749996
mp-1105546,LaFe4(CuO4)3,-1.7861547934999995
mp-1105548,Pr5Bi3,-0.7794298499999996
mp-1105549,BaHfS3,-2.233804104375001
mp-1105554,Tm2ReC2,-0.461748686833333
mp-1105556,La(As3Os)4,-0.3684250926470582
mp-1105558,Ca5CdCu2,-0.1904175862500001
mp-1105559,YGaPd2,-0.8997633489583334
mp-1105560,YCr4(CuO4)3,-2.044962507416666
mp-1105562,Pr(Co2B)6,-0.3410910692105257
mp-1105563,GdB4,-0.5975603681666669
mp-1105564,Ni8Bi8SI,-0.1823161010069446
mp-1105570,TaMnSi,-0.5583059232183906
mp-1105571,UReC2,-0.1711265031250022
mp-1105574,Ce(LuS2)3,-2.470812602375
mp-1105577,La5RuPb3,-0.5346802183333337
mp-1105580,U2Si5Os3,-0.4849765789999992
mp-1105583,Er7CoI12,-1.1984554697499994
mp-1105587,Ce3Bi4Au3,-0.6540745809999997
mp-1105594,La3Cu3Sb4,-0.8382415794999993
mp-1105597,LuSiPt2,-1.1794771324999995
mp-1105598,Y3Co,-0.1445019362499993
mp-1105603,Lu5Ge3C,-0.7462989611111107
mp-1105605,Tb7FeI12,-1.1934446324999997
mp-1105609,Tb3Rh,-0.5144523562499996
mp-1105614,NdScS3,-2.398325325875001
mp-1105615,Dy3Ir,-0.5833388006250004
mp-1105618,KBe2BO3F2,-3.185791254718148
mp-1105621,Pr2Co17,-0.0380578102631575
mp-1105622,Cs3CoCl5,-1.892295382232567
mp-1105625,Ho2Ge5Ru3,-0.6343383185
mp-1105628,NaMn(GeO3)2,-2.1209052663115173
mp-1105633,Y3Ni,-0.239711416875
mp-1105639,U2Fe3Si5,-0.5085144724999993
mp-1105643,Hf2Be17,-0.2262697076315791
mp-1105647,Te6IrCl3,-0.5461469734780003
mp-1105649,YbB2Os,-0.3808078677083326
mp-1105652,Yb(CoP3)4,-0.5643037617366948
mp-1105654,TiSiOs,-0.7876328977777768
mp-1105662,SmGe2Ir,-0.8109561120833328
mp-1105663,Pr3Sb4Pt3,-1.0181149804999996
mp-1105666,Rh2Se3,-0.41645804340625
mp-1105669,NdZn3,-0.3432374631250003
mp-1105674,Mg2BeB2Ir5,-0.5211010988333328
mp-1105684,Tb2Te3,-1.4166449664999994
mp-1105686,HoSiPd2,-0.9902177693749996
mp-1105692,Tl2Hg3Se4,-0.2589899932638886
mp-1105693,Zr5Sb3As,-0.8294155061111113
mp-1105695,Er3Sb4Au3,-0.7785243784999999
mp-1105696,Pr(ErS2)3,-2.481600070875001
mp-1105697,PbCO3,-1.8168244342500004
mp-1105698,Ba2DyGaSe5,-1.6458314868576391
mp-1105700,TePb2O5,-1.5771658157812514
mp-1105702,Zr4NbGa3,-0.5040540174999997
mp-1105703,Ce2Si5Ir3,-0.9906472605000004
mp-1105706,Tb7CoI12,-1.2241570642499997
mp-1105712,Er5Ge3C,-0.7408315011111107
mp-1105715,TiGeS3,-1.2790769408749996
mp-1105726,Ce(Sb3Os)4,-0.1761814214705879
mp-1105727,Tb6IrI10,-1.2851068488235295
mp-1105728,Ba(GaP)2,-0.6562435244285709
mp-1105737,Dy5Ge3,-0.7962538068749998
mp-1105738,Zr5Sb3C,-0.7653304833333342
mp-1105740,Dy(BRh)4,-0.5903373387037026
mp-1105741,Pr3Ru,-0.1678419399999997
mp-1105746,SmGaPd2,-0.8780173189583333
mp-1105749,Y3Si3Rh2,-1.0106676437499995
mp-1105750,LiAu(S2O7)2,-1.787645408833334
mp-1105752,CaCd2Pd,-0.5164496768749998
mp-1105754,Er3Ge3Ru2,-0.7857583325000004
mp-1105762,UIr,-0.4658760693749997
mp-1105775,Sc4OsCl4,-1.726180834226666
mp-1105777,U3Sb4Ir3,-0.4892556994999992
mp-1105784,DySiPd2,-0.9858761349999998
mp-1105786,Dy7Rh3,-0.6244647604999998
mp-1105790,Ba2ErGaSe5,-1.6416490351909725
mp-1105793,Mg2B2AsIr5,-0.4301250438333326
mp-1105797,Lu2InAu2,-0.8037731534999999
mp-1105798,Sm(Co2B)6,-0.3478197033333333
mp-1105800,LuB2C,-0.563279361666666
mp-1105802,CaGe2Pt,-0.7384927350000003
mp-1105803,Dy4Ge6Ir7,-0.8765493111764705
mp-1105807,NdGePd2,-0.872537559375
mp-1105808,Er7IrI12,-1.2604297915
mp-1105809,Ce4Se3N2,-2.140159230199028
mp-1105812,Dy2Ge5Ru3,-0.6406782260000007
mp-1105815,Nd(Co2B)6,-0.3442352921052621
mp-1105818,Nb5Ge3B,-0.565767353148148
mp-1105821,Y2Se3,-1.8951880702395827
mp-1105825,Tb5Pb3,-0.5431418856249994
mp-1105827,Pr3Cu3Sb4,-0.7696639584999992
mp-1105835,Y3In5,-0.48074797625
mp-1105839,Sm(CoB)4,-0.4860729757407414
mp-1105841,Dy3Ru,-0.3238570750000002
mp-1105844,Sr3Hg,-0.276615778125
mp-1105851,Hf5CuSb3,-0.4800996955555566
mp-1105861,Tm3Ge3Ru2,-0.7875506531250007
mp-1105882,Tb4Sb6Rh7,-0.8911226394117645
mp-1105890,Lu3Tl2Cu5Se8,-0.896001707152778
mp-1105893,La3Cu3Bi4,-0.65536034