material_id,pretty_formula,formation_energy_per_atom
mp-1225396,ErZnCuP2,-0.7653537804285719
mp-1225399,Dy3NiPd2,-0.7554921341666674
mp-1225400,Dy6Al2SiS14,-2.0776841112500004
mp-1225403,Dy(CuSe)3,-0.7323385538616074
mp-1225409,Dy6Mn(SiS7)2,-1.9893231062350083
mp-1225421,Dy2Al5Fe12,-0.2151542505263146
mp-1225427,Dy2GaCu3,-0.3746107533333334
mp-1225444,ErUTe4,-0.9278520000000002
mp-1225451,Dy4Co3,-0.1663022250000002
mp-1225453,Er14Ag51,-0.2353850527692311
mp-1225463,Dy2As7Rh12,-0.7055160966666657
mp-1225469,Dy5P12Ir19,-0.8069906775793648
mp-1225475,ErSc(BO3)2,-3.501785345916667
mp-1225477,Er10NiSb5,-0.7994547409375006
mp-1225482,LaCeAl2O6,-3.67541786375
mp-1225485,HoCd6,-0.1773972738095236
mp-1225490,ErAlGa,-0.55062041
mp-1225493,ErBPtRh2,-0.8831832156666657
mp-1225500,DyHoAl4,-0.5143065199999999
mp-1225506,ErAgSn2,-0.4254367733333328
mp-1225509,Dy2CrSbO7,-3.061940537613636
mp-1225514,ErGa2Cu3,-0.3613041100000001
mp-1225518,Er2SbO2,-3.0188886595
mp-1225524,Er2SiGe,-0.8311671162499996
mp-1225540,ErCdIn,-0.3503329333333334
mp-1225541,Er2TeS2,-2.11392643925
mp-1225544,ErCoRu,-0.2922048350000009
mp-1225546,ErGaAg,-0.4752067844444442
mp-1225548,ErAlNi4,-0.5357408150000005
mp-1225549,LaAl2Cu3,-0.3848799575000002
mp-1225557,La4GaSi3,-0.7074880293749999
mp-1225573,DyUTe4,-0.9462770816666672
mp-1225578,DyErTe2,-1.240937315
mp-1225580,LaCe(CuSi)4,-0.5781462669999996
mp-1225586,ErGaAu,-0.7846834516666666
mp-1225592,DyGa3Cu,-0.4570798019999998
mp-1225597,Er2Ga3Cu,-0.5923973649999995
mp-1225604,FeNi35S32,-0.865748722941178
mp-1225609,Er2US3O2,-2.9485357914843746
mp-1225620,ErFeCo,-0.1809689916666658
mp-1225623,Er3ScS6,-2.417595671875001
mp-1225625,DyGaAg,-0.4812316277777781
mp-1225628,ErCuPbS3,-1.4329047115625002
mp-1225636,DyThRe4,-0.1499902966666676
mp-1225638,Er2P7Rh12,-0.9356734466666669
mp-1225643,Er2Ga3Ni,-0.644884433333333
mp-1225654,CuCl,-0.6733869116300002
mp-1225660,Dy3(Ga2Cu)2,-0.559484878333333
mp-1225684,Er4TaV7B24,-0.7392302769444447
mp-1225690,Er2Fe6Co6P7,-0.7913854104761905
mp-1225693,DyMn2SiGe,-0.560348494862069
mp-1225699,ErUTe6,-0.7087769049999997
mp-1225702,CuNi3S8,-0.6499681987499996
mp-1225711,Er6Mn(SiS7)2,-1.9696176179741385
mp-1225723,ErLu(B2Ru)2,-0.6517128941666659
mp-1225724,Dy(CuS)3,-1.136613397767857
mp-1225738,CuBi5S8,-0.696875731071429
mp-1225740,Er2Mn3Sb3O14,-2.4915613197429782
mp-1225760,Dy2CI3,-1.162960576666667
mp-1225765,Er4Co3,-0.2027887278571432
mp-1225771,Cu3PdAu4,-0.0685115450000002
mp-1225772,Cu3Pd13S7,-0.4554321805163045
mp-1225778,Dy5Co19P12,-0.8813685185515878
mp-1225780,Dy2Si2O7,-3.671609935492423
mp-1225783,Cu3Ag3(PS4)2,-0.5484946982589296
mp-1225792,Er5P12Ir19,-0.8008089070238087
mp-1225806,Gd4Co3,-0.1349924130952399
mp-1225810,Cu2SiTe3,-0.0733561841666663
mp-1225816,ErGa2Ni3,-0.5613714344444445
mp-1225819,Er5Co19P12,-0.8904027929960319
mp-1225822,Cu5SeCl5O4,-0.9673521659095836
mp-1225823,Dy(InCu)6,-0.1249482353846158
mp-1225824,CsVZnF6,-3.051766059452337
mp-1225825,La3Gd(BrO)4,-3.202883939166668
mp-1225826,Cu2B3Ir4,-0.1955308738888885
mp-1225829,CsTiAlO4,-3.2305797968472905
mp-1225832,Cu2SnS3,-0.6602649965624998
mp-1225836,Cu4Bi3Pb(SeO)4,-0.8546348240234378
mp-1225837,Cu4PtO5,-0.9031509866250004
mp-1225841,CsUSbO6,-2.792724791714559
mp-1225847,Dy14Ag51,-0.2435491306153848
mp-1225850,K30Ga9Sb19,-0.4405396256034483
mp-1225854,CsTaWO6,-2.76666459671456
mp-1225856,CsVWO6,-2.3090308072701142
mp-1225861,Dy14Au51,-0.6296052355384609
mp-1225864,CsVTeO6,-1.9812762833812263
mp-1225866,Cu2GeSe3,-0.2387333540885414
mp-1225870,CsTaS3,-1.5359956764612064
mp-1225871,Cu2GeS3,-0.6488579094791671
mp-1225874,CsZnCoF6,-2.5556324711190044
mp-1225880,CsTaSe3,-0.981030622992457
mp-1225882,Cu2AgO4,-0.7412350411904757
mp-1225884,CsBH4,-0.4964918101240609
mp-1225887,CsLiZnS2,-1.3946601391695406
mp-1225890,Cu9Sb(AsS6)2,-0.5366018492708337
mp-1225891,Cu2GeTe3,-0.0917681516666662
mp-1225894,CsLiMnS2,-1.3157696901005742
mp-1225896,Er6Si11N20O,-1.6636251279960523
mp-1225900,Er6Ga17Pd5,-0.6742858349999997
mp-1225903,Gd2Mn(GeO3)4,-2.646260203979745
mp-1225904,CsVZn(PO3)6,-2.6259277671059107
mp-1225911,La5Al15Cu2Au3,-0.5903970998
mp-1225915,La2Al6CuAu,-0.5685734750000002
mp-1225916,CsCNO,-1.251816191640259
mp-1225920,Cu12As4S13,-0.4995920482974137
mp-1225921,Cu12Sb3AsS16,-0.5422078939062507
mp-1225922,CsMgAlF6,-3.760720234267152
mp-1225923,CsSbTeO6,-1.8337942672701144
mp-1225926,CsGaCuF6,-2.648057990007893
mp-1225927,CsMgGaF6,-3.351211347600485
mp-1225930,CsAlNiF6,-3.211892403896781
mp-1225933,DyTmFe14B,-0.1137031878921561
mp-1225934,CsMnVF6,-3.1689130872984674
mp-1225938,CsMgCoF6,-2.966938099267153
mp-1225940,K30Ga9As19,-0.4798695637931038
mp-1225941,CsAlCuF6,-3.062713183896782
mp-1225944,CsSbWO6,-2.174593324492337
mp-1225946,Cu2NiSnO4,-1.3060753462499992
mp-1225951,CsMgInF6,-3.265565043156041
mp-1225952,CsNbWO6,-2.631990139492337
mp-1225956,Er2PbS4,-2.009836120357143
mp-1225963,CsK(Fe2S3)2,-1.0146490758067526
mp-1225965,Cu2SnS3,-0.6598965703124998
mp-1225967,CsPSe6,-0.3526529931956204
mp-1225971,CsU2F9,-3.8227524869700864
mp-1225972,Er8Mn3Mo5O28,-3.037396674701034
mp-1225976,CsInCuF6,-2.5796197238967817
mp-1225978,La2(InSn)3,-0.5406591462500003
mp-1225979,CsCoCuF6,-2.3316704250078937
mp-1225982,CsGa5(HgSe3)4,-0.5434788489116381
mp-1225983,Cs4InSbCl12,-1.8251058997691187
mp-1225985,Er5(Sn3Rh)6,-0.5499667427586211
mp-1225986,Cu2Ag5Se4NO15,-0.928223190635987
mp-1226003,CoPS,-0.7733764063988092
mp-1226004,CoNiPt2,-0.0902870562500002
mp-1226006,CoSi4Ni,-0.4453344108333337
mp-1226011,CoSi4Ni3,-0.5244205656250012
mp-1226019,Co5NiS8,-0.8307749428571439
mp-1226029,Fe14Cu7(PO4)18,-2.2687766944530243
mp-1226037,CoNiP,-0.5718572834126989
mp-1226044,Co4CuNiS8,-0.8158637410714279
mp-1226046,CsInCu(PO3)6,-2.4884793026614664
mp-1226048,CoNiTe4,-0.2247233958333332
mp-1226054,CoNiTe4,-0.2204844524999997
mp-1226055,CsW3Br7,-0.7400312714028217
mp-1226056,Co5CuS8,-0.8015198935714289
mp-1226059,Cr8CoCu3Se16,-0.4624942683035706
mp-1226064,CoNiS4,-0.72816808875
mp-1226069,Co3SiMo2,-0.3013730049999997
mp-1226070,CoCuS4,-0.6694374354166666
mp-1226071,Cr7Cd3(InS8)2,-1.0091328207142862
mp-1226072,Co4H,-0.0238550457240002
mp-1226075,CoTeO4,-1.5035922162500004
mp-1226084,CoNiSe4,-0.2586587598958332
mp-1226091,Cr8Cu3NiS16,-1.0124114042857144
mp-1226101,Cs8Na4YHo3Cl24,-2.4914397111255395
mp-1226106,CoRhS4,-0.7907445620833341
mp-1226110,Cr8Co3NiS16,-0.9911834705357156
mp-1226111,Co7NiP4,-0.5355942649404758
mp-1226116,CoCuNiS4,-0.7529267974999995
mp-1226118,Cs4BiSbCl12,-1.796244066991341
mp-1226122,CoAg2Sn3S8,-0.705388866190476
mp-1226125,CsSi2HO5,-2.816133389200115
mp-1226128,Cr8Cd3CuS16,-1.0521261703571432
mp-1226134,Cs4TlSbCl12,-1.72667830588023
mp-1226138,Cs2W(OF2)2,-2.69925542368023
mp-1226139,Dy9Al5S21,-2.1123388770178573
mp-1226151,Cs2SiB4O9,-2.8791674047153366
mp-1226154,Fe8Cu3Te12(Cl5O16)2,-1.4865766485015386
mp-1226156,Dy4Fe28BC,-0.090302258627451
mp-1226157,Cs2Ti(WO4)3,-2.504223664492337
mp-1226158,Cs2Zr(WO4)3,-2.5528180339367816
mp-1226160,Cr5InS8,-1.0403022217857136
mp-1226165,Cr12Ga2(CoS8)3,-1.0095568724390254
mp-1226167,Cs3V2O2F7,-3.013702511758793
mp-1226180,CrSnSbO6,-2.139550610833333
mp-1226182,Cs2Al(TeO4)3,-1.8475643522701144
mp-1226185,K6InAs3,-0.4145541178000002
mp-1226186,Cr8Fe3CuS16,-0.9578732589285712
mp-1226188,Dy2(GaNi)5,-0.5661885591666658
mp-1226191,Cs2Ge(TeO4)3,-1.733243164492337
mp-1226195,Cs3H(SeO4)2,-1.686335302650043
mp-1226198,Co4Cu3(NiSe6)2,-0.3274671539583333
mp-1226199,Cs2ZrMn(MoO4)4,-2.4033164248532195
mp-12262,CsBeF3,-3.4253817598002074
mp-1226202,Cs2CaP2O7,-2.897335156396244
mp-1226207,CrPt4,-0.089858783999999
mp-1226214,Co7CuAs4(HO5)4,-1.554018276235556
mp-1226215,Cs2Hf(WO4)3,-2.593276228936781
mp-1226222,Cs3Y7Se12,-1.825848759102339
mp-1226234,CsTi3P5O19,-3.0105431889120786
mp-1226255,DyP2(HO2)5,-2.2798969704301584
mp-1226259,Cs3Ag9(SbS3)4,-0.6567701339747539
mp-1226264,Cr4GaS8,-1.0906122180769229
mp-1226265,Cr4CoCuS8,-1.0100233842857145
mp-1226272,CrNiPO5,-2.256423954977678
mp-1226277,Cs2Zr2Mn(MoO4)6,-2.442373830185063
mp-1226278,CrSb3Pb4O13,-1.883704501726189
mp-1226280,Cr4CdAgSe8,-0.4979461730059518
mp-1226281,CrAg(PSe3)2,-0.238230650453869
mp-1226293,Cr4InAgS8,-1.0296902370238104
mp-1226296,CrCu(PSe3)2,-0.2169287671205353
mp-12263,LiAuF4,-2.036456893571111
mp-1226300,Cr4FeCoS8,-0.925342617142857
mp-1226304,Cr4GaCuSe8,-0.531764435625
mp-1226305,CoNi2(PO4)2,-2.0903357467032966
mp-1226306,CrBiTeO6,-1.876714274722222
mp-1226307,CrCo4SbO8,-1.7542645882142855
mp-1226308,Cs4Sn21Hg2,-0.2000920654342269
mp-1226311,Cs2MnNiF6,-2.783021627861724
mp-1226324,Cr3Cu2NiSe8,-0.4104583613392855
mp-1226325,Cr4CdFeS8,-0.9150279967857144
mp-1226326,Cr3Cu2SbS8,-0.9152860964285706
mp-1226337,Cr9FeB6,-0.4039070162499989
mp-1226339,K5Mn2B2P5O21,-2.643792350200118
mp-1226341,Cr4CdCoS8,-0.98651161
mp-1226342,Cr4CoNiS8,-1.0001731049999998
mp-1226344,CrGeSbO6,-2.122395900555555
mp-1226346,Cr3(TeSe)2,-0.342733020669642
mp-1226348,Er9Al5S21,-2.094405493160714
mp-1226351,CsMn2(PO3)6,-2.6006874978922205
mp-1226352,Cr2Ir2C,-0.1739758399999999
mp-1226355,Cr2Rh2C,-0.1225513119999988
mp-1226356,Dy20In40Rh19,-0.6027752369620258
mp-1226365,Cs2Cu3NiF10,-2.2420008761101293
mp-1226375,Cr3Rh3S8,-0.917352726071429
mp-1226376,Cs2AsH3SeO8,-1.6634349836043876
mp-1226382,Cr2CdSeS3,-0.9454073502455356
mp-1226383,Cs12Sn2As6O,-0.5224402888772576
mp-1226384,Gd(CuS)3,-1.1444412406250006
mp-1226386,Cr2HgSe3S,-0.5675740293080358
mp-1226387,Cs12Sn2Bi6O,-0.4721628355439244
mp-1226388,Cr2CdSe3S,-0.6862838778794641
mp-1226395,CoMo,-0.025733616730769
mp-12264,LiYbF4,-3.3509574155155555
mp-1226405,Cr4CuNiSe8,-0.4741614749107147
mp-1226414,Cs3H(SF6)2,-2.4629685221079503
mp-1226424,Cs3Er5(PS4)6,-1.4855362532953074
mp-1226429,Cs3Pr5(PS4)6,-1.5187586356637277
mp-1226431,Cu2Bi8Pb3Se3S13,-0.6603275299191805
mp-1226433,Cr3GaS6,-1.092805931875
mp-1226438,CsSm(PO3)4,-2.9351582207713
mp-1226442,Cs2VH2(OF2)2,-2.568652917987461
mp-1226455,Cs2GeB4O9,-2.666895081277838
mp-1226457,Cs4Mn3O6,-1.7886720664284337
mp-1226458,Co3NiSb12,-0.1710631890625
mp-1226460,Co3PW2,-0.2720194922619055
mp-1226464,CeZnSi,-0.5400111249999995
mp-1226473,CeYFe4,-0.0520154797222218
mp-1226474,CePd2Pt,-0.8963582387499995
mp-1226479,CrH15N6Cl2O,-1.7704937570540011
mp-1226483,CeThS2,-2.2847142003125
mp-1226485,CeThSi4,-0.6385285008333325
mp-1226486,CeThB12,-0.5048394496428575
mp-1226491,CeSi2RuRh,-0.995982719
mp-12265,SrCuF4,-3.072028896904444
mp-1226501,CeScPd6,-0.8606627475000002
mp-1226502,CeNdS2,-2.370681960312501
mp-1226503,CeSmB12,-0.4863701898809519
mp-1226505,Cr11NiS16,-1.0185412078571434
mp-1226506,CeTh2O6,-4.225987123611112
mp-1226508,CeSi2OsRu,-0.8038651349999995
mp-1226509,CeZnCuP2,-0.7357131954285713
mp-1226510,CeY2(AlPd)3,-0.8422224201851852
mp-1226517,CeSiGeRh2,-0.9752365040000008
mp-1226519,CeIrPt,-0.8981537533333336
mp-1226520,CeTh2S3,-2.249895580729168
mp-1226527,CeUN2,-1.6204712724399997
mp-1226530,CsMo2P3O13,-2.509730990783964
mp-1226534,CeNdN2,-1.6428812074400003
mp-1226537,Cs3Ge2Sb3O13,-2.0669417292877674
mp-1226538,CeZn2Ni3,-0.3280353791666671
mp-1226545,CeSiGePd2,-0.8516437760000002
mp-1226547,CeThB8,-0.6496545581666666
mp-1226548,CsSiSbO5,-2.53002975427263
mp-1226551,CePtRh,-0.8957365933333321
mp-1226556,CeThN2,-1.740255167439999
mp-1226564,CeIrOs,-0.5131302349999997
mp-1226566,CeOsRu,-0.2707922633333339
mp-1226569,Co3Re25B12,-0.2347528387500005
mp-1226571,CeSm3S4,-2.3660882971875
mp-1226573,CeU4N5,-1.5552124616900005
mp-1226577,CeTh4O10,-4.2896674065
mp-1226588,CeGaNi4,-0.4735752441666664
mp-1226589,CeNdAl2O6,-3.658301932250001
mp-1226591,CeUZn17,-0.2190703336842107
mp-1226593,CeY(GaPd2)2,-0.8569635235416664
mp-1226597,Er6Al41Cr6,-0.2763767483962266
mp-1226598,CeTh3O8,-4.263856102083333
mp-12266,CaCuF4,-3.0621801224600005
mp-1226607,CeNdSi2,-0.6951505962500004
mp-1226611,CeY4Rh5,-0.8279544988333327
mp-1226625,CeCuSi2Pd,-0.7519219869999993
mp-1226626,CeAlNi4,-0.5005290741666665
mp-1226636,CeB2Ir2Rh,-0.6866304552777779
mp-1226637,CeAl2Ag3,-0.2616581708333332
mp-1226639,CeDyFe4,-0.0666110158333322
mp-1226640,CeU(Pt4Au)2,-0.9997667487500004
mp-1226651,Cs3Sb5S9,-0.94371909511283
mp-1226653,CePt2Au3,-0.5836828124999999
mp-1226655,CeB2Ru2Rh,-0.5948096236111103
mp-1226656,CeCu2SiGe,-0.5372381400000009
mp-1226657,CeAs2Au,-0.78899474375
mp-1226673,CeZnNi4,-0.336712021666667
mp-1226675,Cs8Na4Y3HoCl24,-2.490802516542207
mp-1226687,Cs3Sb5Se9,-0.5833424852874617
mp-1226688,Gd3Cu2Te7,-0.9220793883333324
mp-1226690,Cs8Na4Y3HoCl24,-2.490461281542207
mp-1226707,Cr12Fe3S20,-0.9095515497857142
mp-1226711,CeB4(IrOs)2,-0.4984730342592595
mp-1226720,CdSnAu,-0.2061347766666668
mp-1226729,CdHgSe2,-0.4125433911718748
mp-1226730,CdH6(NCl)2,-0.8722707057272724
mp-1226731,CdHg4Se5,-0.2808932491718749
mp-1226733,CdHgSe2,-0.4106340111718749
mp-1226739,Cs3Tb7Te12,-1.4123117176724138
mp-1226741,CdHgTe2,-0.3086697149999999
mp-1226750,CeGa2Ni3,-0.5057816275000006
mp-1226751,CeCoGe2Ru,-0.6069509359999998
mp-1226759,CdIn2SnAu2,-0.2087068999999998
mp-1226762,Ce2ThO6,-4.079302589722222
mp-1226767,Ce2CoRu3,-0.2772908058333338
mp-1226769,CeYIn6,-0.418352454791667
mp-1226771,CdAg2Sn3S8,-0.735120214404762
mp-1226772,Ce2SbTe,-1.23039047375
mp-1226778,Ce2Si4OsRu3,-0.8453107950000003
mp-1226783,Cd4Te3Se,-0.4981515515429686
mp-1226784,Ce2Mn(SeO)2,-2.489543589686096
mp-1226785,Ce2NiRu3,-0.3344897766666683
mp-1226788,CdGeAsP,-0.0885694983928573
mp-1226796,Ce2ZnSb4,-0.698561880714286
mp-12268,BaCuF4,-3.01870764996
mp-1226804,Ce3GeS2,-1.8322527052083344
mp-1226807,Ce2ThO6,-4.079545688611112
mp-1226812,Ce2ThS3,-2.328121873229167
mp-1226818,Ce2ZnBi4,-0.5124439392857144
mp-1226821,CaAlGa,-0.4166220333333328
mp-1226822,Ce2Y(AlPd)3,-0.8134286003703706
mp-1226825,Cs3Sm7Te12,-1.4015653296421111
mp-1226839,Ce2AlFe3,-0.1661575216666655
mp-1226843,Ce2CdSb4,-0.6863870500000004
mp-1226848,Ce4Cu3(SO)4,-2.518107975166666
mp-1226851,CeTaTiO6,-3.655513021388889
mp-1226852,Cs2Sb8S13,-0.8039189270211772
mp-1226853,Ce5BiSb4,-1.015584074499999
mp-1226865,Ce2Si2NiPt,-0.9238165500000004
mp-1226868,Cs3Sm7Se12,-1.7862966722841565
mp-1226870,CeY(MgNi4)2,-0.3947946312500002
mp-1226874,Ce4ThO10,-4.021824937499999
mp-1226879,CsNd(PO3)4,-2.937634769845374
mp-1226880,Ce2Mn3Si4Pd,-0.6409793258965522
mp-1226881,CsNb4Ag(PS10)2,-1.122102707889544
mp-1226885,Ce2CuSi3,-0.6584831741666667
mp-1226890,Ce4H11,-0.6045349396546669
mp-1226891,Cd3PI3,-0.4413305776530613
mp-1226896,Ce2Ge2IrRh,-0.9039394774999998
mp-1226897,Cd4HgSe5,-0.5396099111718751
mp-1226899,Ce2SiGe,-0.6779187674999996
mp-1226905,Ce2(TlSn)3,-0.4085944374999997
mp-1226923,CsNaB10(H2O9)2,-2.585408520242481
mp-1226936,Cd4MoW3O16,-1.967918788333332
mp-1226937,Ce3Th3Si4,-0.6146364595000001
mp-1226938,Ce2In2PdRh,-0.707822892222222
mp-1226941,Ce4CoSi6Au,-0.7446602145833326
mp-1226947,Ce4Bi8Pd3,-0.6380143380000002
mp-1226957,Cd3InAu12,-0.1294484306249996
mp-1226967,Cd2SnGeAs4,-0.1134597987500001
mp-1226980,Ce2Ga7Pd,-0.6051389039999989
mp-1226984,La10Ga3Co7,-0.243732361
mp-1226985,Cd2In3Ag3Te8,-0.3287946656250002
mp-1226988,Cs3Rb5Mo12(P3O17)4,-2.4402501326915025
mp-1226991,Ce2Al6CuAu,-0.5443560609999999
mp-1226996,CdBi12(Cl7O6)2,-1.684025193862564
mp-1227000,Cs2ZrAl2(MoO4)6,-2.474133972453201
mp-1227002,CeTiNbO6,-3.495598801388889
mp-1227006,DyCd6,-0.186033300952381
mp-1227010,Ce2AlGaNi2,-0.5933203527777783
mp-1227011,Cd3(CuP5)2,-0.117105213714286
mp-1227012,Ce2MgCo9,-0.133792400694445
mp-1227014,Cd2Ga2Se5,-0.6147272107465278
mp-1227017,Ca4ZnAg3,-0.3148579181249999
mp-1227020,CaZnAg,-0.3197289061111113
mp-1227023,Ca6Br2N3Cl,-1.6094875517000002
mp-1227028,CaYbAl4,-0.3356642069444445
mp-1227037,Cs3K5Mo8(P2O11)4,-2.494337751211244
mp-1227041,CaNdAlO4,-3.568476371428571
mp-1227042,CaGaSi,-0.4467473600000004
mp-1227043,CaSm2S3,-2.393480210173612
mp-1227045,CaH2Pd,-0.6328618130599994
mp-1227050,CaSmB12,-0.4399960684523815
mp-1227055,CaLaSi4,-0.5185566649999996
mp-1227056,Ce2CoGe4Ru3,-0.6211942995000015
mp-1227057,Ce2Mn17C2,-0.047492593530378
mp-1227060,CaSmAlO4,-3.587606043333334
mp-1227072,CaGa3Pt,-0.6559534130000003
mp-1227073,CdCo3(PO3)8,-2.4260885748214287
mp-1227074,CeCdIn,-0.3064219616666666
mp-1227077,Cd43Pd8,-0.1753209280392157
mp-1227081,CaThV2O8,-3.174514652083334
mp-1227085,CaYb3(InGe2)2,-0.5768474895000001
mp-1227096,CaGaCu,-0.3449507116666665
mp-1227097,CaScAlSiO6,-3.5934268677499994
mp-12271,MgSeO3,-2.040628077885416
mp-1227101,CaTaAlO5,-3.4944394439062485
mp-1227107,CaGaBiB2O7,-2.663333024201389
mp-1227109,CaSmAl3O7,-3.562766038923612
mp-1227110,Ca5P3O12F,-3.432073433424014
mp-1227111,CaLaAl3O7,-3.5818643715625007
mp-1227113,CaPrAl3O7,-3.553667902395834
mp-1227114,Ca7TlN4,-0.8840982945433336
mp-1227115,CaNdAl3O7,-3.557358226562501
mp-1227121,CaThNb2O8,-3.526748495416665
mp-1227127,CaMgCd,-0.2477120586111111
mp-1227131,CaTb3Mn4O12,-2.9206334951230337
mp-1227132,La3Pb3I13O40,-1.3770671193220343
mp-1227137,Ca4TiSi4Sn3O20,-3.081877637656251
mp-1227139,Ca5Co3(SiO4)4,-3.027822512857143
mp-1227140,CaSmMgNbO6,-3.418625050916667
mp-1227150,CaAs3F15,-2.7802811113342107
mp-1227153,CaLaGa3O7,-2.8537332961458337
mp-1227156,CaTbMn2O6,-2.795747589873033
mp-1227157,Ca5Bi6(Cl3O2)4,-2.263501270778065
mp-1227161,CaPr3(FeO3)4,-2.7419473057499983
mp-1227163,CaZrTi2O7,-3.63228598125
mp-1227165,Ca4Ti3Si4SnO20,-3.350473759218751
mp-1227173,CaLaMnNbO6,-3.218418974061517
mp-1227174,CaNd3Mn4O12,-2.8705829286230333
mp-1227178,Ca4ZrTi3(SiO5)4,-3.5049300320312504
mp-1227179,CaLa(GeIr)4,-0.7330021889999998
mp-1227181,CaLaGa3S6O,-1.8415790454166665
mp-1227184,CaNd3Cr4O16,-2.6659803777083333
mp-1227186,CaLaAl3O7,-3.584050336145834
mp-1227190,Ca4ZrTi3(GeO5)4,-3.078289075156249
mp-1227195,Ce3Mg2InAu3,-0.5885832312962967
mp-1227197,CeNd3(Fe14B)2,-0.071043282107842
mp-1227201,Cd2Hg13(As2Cl3)4,-0.6571517132605716
mp-1227203,Ca5As3ClO12,-2.751228874679047
mp-1227211,CaTh(PO4)2,-3.431096571845238
mp-1227220,CaLa4Si3O13,-3.7361046864880953
mp-1227224,CaLaNbCoO6,-3.089344145749999
mp-1227225,Ca5TiSn4(BO3)10,-2.9243951107166657
mp-1227227,CaCeN2,-1.417262256189999
mp-1227232,Ca6Al7ClO16,-3.454906173275333
mp-1227236,CaCd3O4,-1.87464859375
mp-1227238,CaBiIO2,-2.1011818025
mp-1227239,Ca5P3O13,-3.254763330093538
mp-1227240,CaNb4O8,-2.976309384230769
mp-1227251,CaMnFeGe2,-0.344880228931035
mp-1227253,CaU3Ti8O24,-3.5820833329166666
mp-1227255,CaCeV2O8,-3.0369384150000003
mp-1227265,Ca2PtAu,-0.8656929225000005
mp-1227272,Be4AlFe,-0.2369043566666663
mp-1227279,Be4AlNi,-0.2912921533333333
mp-1227290,BiSb,-0.0066621075000004
mp-1227298,BiSbPd2,-0.3748152862500005
mp-1227300,Ca2GaSi,-0.5224436587499999
mp-1227301,CeY(GePt)4,-0.8751802098333336
mp-1227302,CaTb2Mn3O9,-2.8803953160397007
mp-1227310,Ce2(InSn)3,-0.4932228062500003
mp-1227317,Ca4Ti4Si3GeO20,-3.3792193978124985
mp-1227319,Bi3Sb,-0.01188758875
mp-1227322,Bi2PdPt,-0.3053268524999994
mp-1227325,BaSrMgTeO6,-2.69503844975
mp-1227329,CaCd(CO3)2,-2.23754655325
mp-1227331,Ce4Ni3Bi8,-0.5163859333333335
mp-1227332,Bi2BrClO2,-1.5301275376266663
mp-1227336,BaSrTi2O6,-3.5229633724166667
mp-1227337,Ca6Al7O16F,-3.509224816039667
mp-1227340,BiSbTe3,-0.1792157270000004
mp-1227341,Ca2ScP3Pt7,-1.0411186439010982
mp-1227348,Be4NbMo,-0.2566803274999998
mp-1227349,BaZnIn3,-0.3493581609999999
mp-1227351,Ca2Ga7Ag,-0.3682119193333332
mp-1227353,Ce2NiSn2Pt,-0.7894522133333334
mp-1227356,Bi2TeSe2,-0.3424126669374992
mp-1227357,Be3Cu,-0.1048676979166671
mp-1227362,CaYP7O20,-2.9022352842528734
mp-1227364,Ca5(Si2Au3)2,-0.6927025513333329
mp-1227368,BaSrMgWO6,-2.9615704857500007
mp-1227370,Ca2Ti2SiGeO10,-3.2707998960937505
mp-1227372,BiTeIr,-0.2316184149999998
mp-1227376,Ca2AlP3Pt7,-0.9124209150549452
mp-1227379,Ce2NiSn4,-0.5725480671428572
mp-1227380,Ca(YTe2)2,-1.4855214416666662
mp-1227383,Ca2AlZn16,-0.18940701
mp-1227385,Ca(HoTe2)2,-1.4603104978571426
mp-1227387,Ca(ErTe2)2,-1.4528039721428567
mp-1227389,BiPbIO2,-1.3840549574999996
mp-1227394,Be2BH3O5,-2.379313920949393
mp-1227395,Ca(TmTe2)2,-1.4424711873809528
mp-1227399,Ca2MgFe(SiO3)4,-3.212541482416666
mp-12274,LaAl4Co,-0.5193769616666669
mp-1227400,Ca5Si(PO6)2,-3.397878833857143
mp-1227402,Ca2IrPtO6,-2.05727162875
mp-1227403,Bi(SbTe2)3,-0.1547346744999998