material_id,pretty_formula,formation_energy_per_atom
mp-1200461,Lu2Ga3Ni14,-0.3603723839473682
mp-1200467,Cs4(BS)9,-1.053335837720416
mp-1200470,Ca3Co4Sn13,-0.2973849322499994
mp-1200473,HC2N3,-0.2254583834600004
mp-1200479,BaLuCo4O7,-2.181679069326924
mp-1200490,Tb4Al2O9,-3.8285427059166666
mp-1200495,Cs2Cd2(MoO4)3,-2.0620650304401087
mp-1200496,Ba3B(BrO)3,-2.7713880587083337
mp-12005,Tm2Al3Si2,-0.5280978109523805
mp-1200507,Hf2(NiP)3,-0.9990125760267858
mp-1200512,Er6Al43W4,-0.270059498301887
mp-1200516,In2Cu3(SeO3)6,-1.305290344364224
mp-1200532,Gd3InS6,-2.0905107553750013
mp-1200533,Yb(BRu)4,-0.4234620047222219
mp-1200538,Tb2B6Os,-0.6334287074999989
mp-1200540,Ho4RuBr5,-1.4109063953749996
mp-1200548,B5Pb2IO9,-2.468764567818626
mp-1200551,Nd2US5,-2.2212999019531248
mp-1200554,KTa3(TeO6)2,-2.694226108777777
mp-1200555,YbP2H4NO7,-2.150380534127969
mp-1200559,Er2Ni7,-0.4042400950000002
mp-1200560,CsAu(IO3)4,-0.9286724557183909
mp-1200563,Ag7AsSe6,-0.0770091467782739
mp-1200567,Cs4Hf3Se14,-1.041841341644602
mp-1200569,Rb3Cd(BO2)5,-2.609235592061404
mp-1200571,LaErS3,-2.5417192061250007
mp-1200575,Sc4B12Rh17,-0.6328933371212118
mp-1200576,NaSc3P8(H7O12)2,-2.219782539785028
mp-1200581,Bi2B3HO8,-2.302247087401428
mp-1200584,La3Zn22,-0.2911112434
mp-1200585,Ho2Fe3Si5,-0.6978019464999988
mp-1200592,CsThMo2ClO8,-2.6419388258608487
mp-1200593,KH3(SeO4)2,-1.3566847602533925
mp-1200594,Nd23Mg4Pt7,-0.5311637086274518
mp-1200595,V4Cd9O19,-1.869749058710937
mp-1200597,Pr4In8Ni7,-0.3751973723684217
mp-12006,CeCdNi4,-0.3483437975000001
mp-1200600,U(H2O3)2,-2.073627345634545
mp-1200608,SrAlF5,-4.066561239659523
mp-1200610,Cs4GeTe6,-0.6971871165203765
mp-1200613,Y3C4,-0.3168633924285716
mp-1200615,Li4Zn(PO4)2,-2.6751271864206343
mp-1200617,Sc(BRu)4,-0.4696099445370376
mp-1200631,InSb3F18,-2.6644337325645453
mp-1200639,Bi2Se5Cl7,-0.8718577905027683
mp-1200647,Cs3ZnI5,-1.2661430068103448
mp-1200650,Ho5Sb2Pd,-0.8345742200000004
mp-1200651,BaLa2Ti3O10,-3.6929537360937497
mp-1200661,K(NaIn3)3,-0.1339235246538461
mp-1200666,CsGaP3HO10,-2.5462925099853324
mp-1200672,Sm5Pb4,-0.5668275740740738
mp-1200673,MgH18I2O9,-1.3771366572414436
mp-1200675,KIO3,-1.3790330483499993
mp-1200686,Tb3Ge13Os4,-0.3434323329999998
mp-1200692,SiC,-0.2050778501470581
mp-1200695,UP2O7,-3.087123816589286
mp-1200696,Ce5Ge4,-0.7107418786111105
mp-1200699,P2O3F4,-2.7567603889614283
mp-12007,HoCdCu4,-0.2506362566666666
mp-1200700,Pr3Zn22,-0.2849607091999999
mp-1200708,Sc44Ir7,-0.3723972700980387
mp-1200709,NaTb(PO3)4,-2.918518138293651
mp-1200713,ZrHg4(PCl3)2,-1.1754187311886817
mp-1200720,CsInSe2,-0.937846383467134
mp-1200733,CsGa(PO3)4,-2.6217071062805606
mp-1200734,CsInP2O7,-2.618158291256718
mp-1200738,Pr5(Sn5Rh2)2,-0.7500781710526316
mp-1200740,Yb(TiAl10)2,-0.2097013165942028
mp-1200744,Rb2Cd3(B4O7)4,-2.691432545680273
mp-1200745,RbNd(MoO4)2,-2.59710946125
mp-1200749,Zr5Ge4,-0.8471310825000005
mp-1200753,Ho3Rh2,-0.7973003817142853
mp-1200754,Nd4In21Pd10,-0.5314295022857144
mp-1200756,Pr(BRu)4,-0.4360171964814804
mp-1200758,Ba3V2(SeO4)4,-2.200623352975
mp-1200759,Ba3GeS5,-1.9522517242361108
mp-1200765,Sc2Nb3Si4,-0.8206248252777786
mp-1200767,Sc3Ga5,-0.60104077
mp-1200772,Ba2YCu3(PbO4)2,-2.0499319905208333
mp-1200777,Er5(Ge5Rh2)2,-0.7997120763157897
mp-1200778,Ho2B6Os,-0.6715229333333324
mp-1200788,Cu3P8(Se2Br)3,-0.1821812257566961
mp-1200791,In4As5(BrO4)3,-1.6460897737500002
mp-1200795,KAl3Si3(HO6)2,-3.032245896797144
mp-1200796,Ba3In2(PO4)4,-2.9395061753714287
mp-12008,ErCdCu4,-0.2532515199999998
mp-1200805,CsLi(B3O5)2,-2.853124262199872
mp-1200809,Pr5(Sn5Ir2)2,-0.6762248713157891
mp-1200811,Mg(BH4)2,-0.3267206234660604
mp-1200815,Sc13Os3Br16,-1.33731508125
mp-1200835,Tb5(Ge5Ir2)2,-0.7850821850000006
mp-1200843,Nd3RuO7,-3.0479398219318186
mp-1200852,NaTi2(AsO4)3,-2.3689103208333315
mp-1200859,Na2HoPWO8,-2.812263093736263
mp-1200860,NaScP2O7,-3.0748292225811698
mp-1200866,Na2TiSi4H4O13,-2.7023627414887503
mp-1200867,La(Al10Cr)2,-0.1562065217391308
mp-1200868,La4P9Rh8,-1.1139551881972791
mp-1200874,Ce2MgNi2,-0.3141201341666672
mp-1200878,KSb2PO8,-2.23067658492262
mp-1200882,SrCdB2O5,-2.744620925648148
mp-1200885,Y4C7,-0.2810563834848484
mp-1200892,BaSm2Sc2O7,-3.786189698368056
mp-1200894,Zr3As,-0.7459243340625017
mp-1200895,MgB3H20N3,-0.4511923526990123
mp-1200897,Ho4GaSbS9,-1.9298109617083337
mp-1200898,Sm3Sn13Ir4,-0.5041898867499995
mp-12009,YbCdCu4,-0.2501237711111106
mp-1200900,Ho(NO3)3,-1.5537084850684617
mp-1200910,Li7H5N4,-0.6476307924554163
mp-1200920,CaC2(NO)2,-1.5477836643704763
mp-1200926,ScV(SeO4)2,-2.140990123723958
mp-1200930,Cd3Pb2Se4(IO6)2,-1.336207134320652
mp-1200935,Ba2GaSbTe5,-0.9376032616666669
mp-1200944,Pr5(SiN3)3,-1.477119438612941
mp-1200949,Ce2Sb4Rh3,-0.8358063825
mp-1200951,Cs3Bi2(PS4)3,-1.0376404204753698
mp-1200955,La21Mn8Bi7C12,-0.542318600463363
mp-1200960,K2Na2Sm4Nb2O13,-3.215451691764493
mp-1200969,B3Pb3NO10,-2.057303709551764
mp-1200971,Sc2Nb3Ge4,-0.7174373566666661
mp-1200972,HfCrGe2,-0.4149381245833332
mp-1200983,Re2S(ClO2)4,-1.7176925782443333
mp-1200984,Dy3Si11Pt23,-0.8676858841891891
mp-1200987,CsGa(SeO3)2,-1.7076498940118534
mp-1200988,Hf7Cu10,-0.1783530397058825
mp-1200995,Sm2Ni7,-1.746357396851852
mp-1200998,Ba2H8PtO8,-1.7488541984978945
mp-1201,Sb2Te3,-0.1299954600000006
mp-12010,BaSeO4,-2.166358789557292
mp-1201001,Y5(NiTe)2,-0.811934231574075
mp-1201016,Cs9Fe2Se7,-0.9268049205714198
mp-1201018,Ag3S4(O3F)4,-1.7686960128156528
mp-1201027,Na2CO3,-2.0907759421527783
mp-1201034,ZrGa2Co,-0.5384515189999994
mp-1201043,Rb2Sn2H3N,-0.4210832300925
mp-1201047,Dy4BClO7,-3.739890335987949
mp-1201050,Sm2Nb2S7O30,-2.3880437375863823
mp-1201056,BPb3O4F,-2.0935481830025933
mp-1201065,Li15H9N8,-0.6416856581756241
mp-1201069,CsCuPSe3,-0.514552522672286
mp-1201076,Y4Ga21Ni10,-0.5083550589523806
mp-1201078,Na2TeW2O9,-2.0759830398214283
mp-1201096,CaCrBi12(Mo2O17)2,-1.921138409855769
mp-1201098,Sr2B5H3O11,-2.741690446171904
mp-12011,KTbGeS4,-1.6326299007857148
mp-1201112,Rb2GaB5(H4O7)2,-2.190551271437556
mp-1201139,Lu2(Ni5B3)3,-0.4260958040384613
mp-1201140,Tb11Sn10,-0.7542599321428569
mp-1201143,AsClOF8,-1.851154674911818
mp-1201155,Cu5Se4(ClO6)2,-1.0706146828649998
mp-1201161,Pr4AsBrO8,-3.2414742844642856
mp-1201162,TeS7Br2,-0.5571905654375001
mp-1201167,Cs2ZrCu3F12,-2.7661399936190043
mp-1201168,TbAu6,-0.4118504512499998
mp-1201169,P4Se3Br2,-0.1725718737574403
mp-1201177,CaB4(H10N)2,-0.452599556870123
mp-1201193,TmFe5P3,-0.740440818783068
mp-1201197,Tb6Al43Mo4,-0.3206899725471704
mp-1201199,Cs3As(PSe3)3,-0.550613259725071
mp-12012,KPrGeSe4,-1.1439665667678571
mp-1201210,InH6(ClO)3,-1.4199455146346152
mp-1201213,Cs2Cd3(B4O7)4,-2.6937245035550084
mp-1201215,H7AuN4O15,-1.041095667726296
mp-1201217,CsVSeO5,-1.9947169695655989
mp-1201235,KSi2HO5,-2.813231671707778
mp-1201237,DyGa3,-0.5338209057499995
mp-1201241,Dy7C2I12O,-1.4786564473295458
mp-1201245,PrCd11,-0.1622704981944444
mp-1201249,MnFe2Pb8F24,-2.7462226675478623
mp-1201250,Cs3Zr7MnCl20,-2.1470543589886546
mp-1201259,NaTiAsO5,-2.5385782160937493
mp-1201263,CsCa(PO3)3,-2.913758108921094
mp-1201266,Tb5Ir3,-0.7895474256250008
mp-1201270,KErF4,-4.056086338052592
mp-1201271,HfZn22,-0.0499071982608695
mp-1201273,HoHSO5,-2.656477732561875
mp-1201277,Hg2As5H6O2F31,-2.19510306230674
mp-1201278,K2P2PdS6,-1.0467624115357148
mp-1201279,Th2Zn17,-0.2253177539473684
mp-1201296,Nd5Rh4,-0.6581056363888891
mp-1201298,Ho11(In3Ge2)2,-0.6500613850000001
mp-1201301,K2Hf2O5,-3.299384814972222
mp-1201314,Li8Be6P7O29,-2.760211074091666
mp-1201318,Pb3(NO4)2,-1.274401187096923
mp-1201330,Te6MoI3,-0.170367885625
mp-1201345,Ba5B3ClO9,-3.1723562488616657
mp-1201357,Cs3Tm11Te18,-1.3669008634518685
mp-1201360,Ba4MgC4(N4F)2,-1.4476328276185964
mp-1201364,U6Al43Cr4,-0.1902707158490563
mp-1201373,Cs2Mo5(P3O11)3,-2.570574988454182
mp-1201376,ZnIn2(SeO3)4,-1.5339193223355254
mp-1201377,Pr(NO3)3,-1.5512151117992308
mp-1201388,Tb13Zn58,-0.3307475411267606
mp-1201395,Tb4Te3N2,-1.6394656266399994
mp-1201399,SmCO4,-2.519888135
mp-1201400,BaSi(S2O7)3,-2.173029157198276
mp-1201406,Cs2Nb3Cl7O5,-2.469170064113652
mp-1201408,CsGaBP2HO9,-2.570210746385148
mp-1201411,SmSn3Ru,-0.4764186386666665
mp-1201413,BPb7Br3O7,-1.5974572116435186
mp-1201415,Li3V(H4O3)4,-1.6628041629037495
mp-1201418,Na2YPWO8,-2.80063343341575
mp-1201420,Rb2Y(NO3)5,-1.5577340061876817
mp-1201421,Gd2Nb2S7O30,-2.424363025838414
mp-1201436,Ho3Si11Pt23,-0.8619431962162164
mp-1201442,Tl4Si5O12,-2.6475339266666658
mp-1201443,Cs3Nb9(TeO8)4,-2.6303736137248563
mp-1201452,Nd4InSbS9,-1.9125743002916675
mp-1201454,Sm11Sn10,-0.731088407222222
mp-1201457,Sm3Zn22,-0.2787050738000002
mp-1201460,Ba5In3F19,-3.618498575976297
mp-1201470,Sb2Os(OF7)2,-2.3451941120610527
mp-1201472,Cs3SbO4,-1.9037897935991377
mp-1201475,Mg3(Al9Mo)2,-0.149248381521739
mp-1201490,Rb7GdFe6(P4O17)2,-2.598217093099489
mp-1201491,Lu6H40N8O49,-1.6698916738358245
mp-1201493,Rb11Mn8O16,-1.7754605508548975
mp-1201494,Rb2Th7Se15,-1.7042321500065107
mp-1201497,Bi2Pd(SeO3)4,-1.349042502598684
mp-1201499,Y3(Si3Ru)4,-0.6462152992105246
mp-12015,KAg2AsO4,-1.3609908030833329
mp-1201509,Rb3B(SeO4)3,-1.734260409756031
mp-1201511,Mg3(Al9V)2,-0.1380236078260868
mp-1201514,K2RuO5,-1.5328489324687498
mp-1201517,Na2ErPWO8,-2.81420577412088
mp-1201519,K2Na2Nd4Nb2O13,-3.190114129663044
mp-1201525,Na2MoH2O3F4,-2.3664297100625
mp-1201529,VB(PbO2)4,-2.034098952559524
mp-1201534,Ce3Ge13Os4,-0.3566828577499997
mp-1201536,K12Sn4Au21,-0.3482298678648651
mp-1201539,ZnBi4(PO6)2,-2.16143265461936
mp-1201540,Lu2B6Ru,-0.7396888038888881
mp-1201545,K2LaCl5,-2.588505603725
mp-1201546,Sr4GeAs4,-0.9698138200462962
mp-1201547,Ho4BClO7,-3.749281540603334
mp-1201552,Ga2Cu(SeO3)4,-1.4621729887828947
mp-1201558,ZrFeGe2,-0.5100906193750004
mp-1201560,P7Pb,-0.0038814656250005
mp-1201561,Sc57Ir13,-0.4917506062142853
mp-1201565,Ce(BRu)4,-0.5306129712037043
mp-1201566,Tl3AsSe4,-0.2822392702343745
mp-1201574,In2Hg6(PCl3)3,-0.8968565235027143
mp-1201577,Nd2USe5,-1.6240273374023433
mp-1201580,Yb5Ni19P12,-0.8371033412830692
mp-1201581,Tb2(Ni2B)5,-0.4603592840686278
mp-1201591,LaCd11,-0.1806965162499998
mp-1201592,Tb(Cd10Ni)2,-0.0995569656521738
mp-12016,Rb2SiS3,-1.4571438257291671
mp-1201601,RbVPHO6,-2.4057737707191422
mp-1201605,BaRuO5,-1.7979525101785707
mp-1201606,BP(PbO2)4,-2.151826096028912
mp-1201615,Gd4BClO7,-3.6682415871417953
mp-1201621,La2USe5,-1.7337163045898445
mp-1201622,BPBr6,-0.4717488549255955
mp-1201639,Pr(Ni2B)6,-0.3944616905263154
mp-1201643,Cs3U2PO10,-3.147580606241533
mp-1201646,LaGaS3,-1.841222721041668
mp-1201649,Ti2Be17,-0.1988030907894742
mp-1201654,CuPHO4,-1.9090660900749656
mp-1201657,Er2ReB6,-0.6611544716666669
mp-1201660,Ho5(Ge5Os2)2,-0.5442349613157892
mp-1201665,Er6Al43Cr4,-0.2647201369811318
mp-1201667,Y5P12Ru19,-0.8613978372089959
mp-1201672,NaZn2(BH4)5,-0.2237150355023805
mp-1201674,SmCo5P3,-0.8024518493386247
mp-1201679,BaLa2WO7,-3.2921723476136378
mp-1201682,ScFeGe2,-0.5275866927083328
mp-1201686,Tl2Mo3SeO12,-1.792235862630207
mp-1201689,LaNi3B,-0.4387614501666668
mp-1201690,Sr3B6H2O13,-2.9221197830620844
mp-1201691,MnTe6O13,-1.574276679593258
mp-1201692,LiFe(Se2O5)2,-1.4654720970963542
mp-1201694,K2Tc9O27F11,-2.0713714304151023
mp-12017,CeAl4Ge2Au,-0.4233571231250002
mp-1201705,TiCoGe2,-0.4759011279166666
mp-1201710,WS2O9,-1.9140438487499989
mp-1201721,U(PS3)4,-0.8514742715756298
mp-1201722,Ge3(SbO3)4,-1.943519218947369
mp-1201723,Sn3SbF9,-2.632525562554616
mp-1201728,SmFeSb3,-0.4810447059166662
mp-1201735,La21Mn8Sn7C12,-0.4625142600466958
mp-1201749,Sr2As2O7,-2.5319197531439404
mp-1201758,KGe,-0.2047048930624999
mp-1201760,Er5Ir3,-0.8599043125000003
mp-1201764,TePb5O8,-1.5504368549999998
mp-1201769,Sm6InFe13,-0.0694688247499982
mp-1201774,Cs3AsSe4,-0.8411290707085128
mp-1201786,KB3SeO7,-2.43716738179948
mp-1201790,CsP7,-0.197631086303879
mp-12018,NdAl4Ge2Au,-0.4458568912500009
mp-1201800,PrTmS3,-2.469100070791668
mp-1201802,Ba4NaGe3S10Cl,-1.6892155252373682
mp-1201807,Rb2Ta2P7O24,-2.763099761571428
mp-1201816,Gd2Co17,-0.0897626589473675
mp-1201817,Er3Si11Pt23,-0.8570655912162155
mp-1201825,Pr3Sn13Ir4,-0.5205419372499989
mp-1201836,Ti5As3,-0.8802171265624992
mp-1201849,Nd3Fe5O12,-2.62513388325
mp-1201852,Nb2O5,-3.039624516964286
mp-1201858,Cs2BiPWO8,-2.3513307799564225
mp-1201868,Pr4As2S9,-1.827297113541668
mp-1201869,Lu2ReB6,-0.6923336005555554
mp-1201871,Li7Si3,-0.2711357845
mp-1201880,Tb3Co4Sn13,-0.3489821962499995
mp-1201886,Y2B6Os,-0.6425051449074081
mp-1201895,Er3Ni19B10,-0.4407343832291674
mp-1201906,Ba2GaBiS5,-1.6628613892361117
mp-1201907,Ba20Hg103,-0.305764042601626
mp-1201911,Tb5Zr3(Ni4As3)4,-0.8344339611111119
mp-1201912,Ce2ThS5,-2.4360777363281256
mp-1201916,Y2Te3MoO12,-2.400851179120371
mp-1201917,Na9Sc(MoO4)6,-2.3108602802499987
mp-1201918,Cs2TeH6(ClO3)2,-1.5841241350942392
mp-1201920,CsSe4,-0.4403391138362068
mp-1201929,BaLa(SbSe3)2,-1.09627311765625
mp-1201930,Na3Sr4Cr5F26,-3.4500614246080694
mp-1201953,Ba3Al2B10H4O23,-2.868314598727698
mp-1201960,Cs3GaP2,-0.3994661422393264
mp-1201961,Cs6Ho21Te34Cl,-1.4396479008201004
mp-1201962,Dy4Te3N2,-1.6425696124733338
mp-1201972,ZrCrGe2,-0.4698701943750005
mp-1201973,Gd3InS6,-2.0888066993750014
mp-1201985,RbY(BH4)4,-0.4276800548675749
mp-1201988,MgTl2H12(SO7)2,-1.7020367514684946
mp-1201999,Y5IrBr9,-1.696235812111111
mp-12020,ErAl4Ge2Au,-0.4166240449999998
mp-1202005,Lu6Al43Mo4,-0.2984150387735854
mp-1202008,CuAg2(NO3)4,-0.8382425750624565
mp-1202009,Sb2H18C3(IN)9,-0.4995586230873174
mp-1202012,Na2Sn(S2O7)3,-2.0179759993333333
mp-1202016,Tm6Al43W4,-0.2655165845283018
mp-1202025,Zr2V3Ge4,-0.6149206824999993
mp-1202044,Dy11(Ni10C)6,-0.2749604287012992
mp-1202045,Lu2(TeO3)3,-2.498869274613096
mp-1202046,Sr2PIO4,-3.0640206239880947
mp-1202057,Yb36Sn23,-0.6522030663559322
mp-1202064,Cu3Pb2Se2(NO7)2,-1.183441283128153
mp-1202070,Er2Nb2S7O30,-2.388109869496952
mp-1202074,Tm11Cd45,-0.2122678625297618
mp-1202079,Ti21Mn25,-0.2552727194865072
mp-1202082,KAlF4,-3.6662658258766654
mp-1202098,K2Mg2(MoO4)3,-2.4126528839999994
mp-12021,AgBF4,-2.5989743569044443
mp-1202101,Ce8Re13B12,-0.395833991666667
mp-1202105,K3AsS4,-1.2012852829999998
mp-1202113,CeH8(SO6)2,-1.9569332854439128
mp-1202124,Ba6Zr(Zn3S7)2,-1.8051350664351853
mp-1202127,Tb2Nb3Ge4,-0.7417844727777774
mp-1202129,Y11(In3Si2)2,-0.6331317515079361
mp-1202141,Tm3Ga2,-0.5444130174999998
mp-1202164,Tm3Co4Ge13,-0.4061745905000002
mp-1202169,NaPr3Ge4O13,-2.806992458154762
mp-1202174,Dy5(Ge5Rh2)2,-0.8138037823684221
mp-1202176,LiY3Si2(O4F)2,-3.723889854002918
mp-1202177,RbNa8(GaP2)3,-0.422715517023809
mp-1202187,Ho2Ni17,-0.2054892421052638
mp-1202194,Cs2Hg(BSe)9,-0.4476301293788482
mp-1202195,Pr2ZrS5,-2.300974092890625
mp-1202200,ScV(SeO4)2,-2.140444800807291
mp-1202203,Cu3P4(SBr)3,-0.4142415181662095
mp-1202213,Cs8Ga11Cl,-0.3706514968354139
mp-1202217,RbLiSO4,-2.409222769791667
mp-1202223,WO3,-2.170796157687501
mp-1202226,Na3TaS4,-1.4778092156250002
mp-1202228,Dy5Pt4,-1.1602413591666665
mp-1202234,U2ReB6,-0.5657315908333342
mp-1202237,MgB2H13N3,-0.5274746623263157
mp-1202244,La18In3Co28,-0.1447421922448983
mp-1202245,Yb3(SnPd)2,-0.8617416346428571
mp-1202251,HC2N3,-0.2244298974877791
mp-1202252,CaZn2(H5O4)2,-1.6641437041047622
mp-1202254,Ho3Ge13Os4,-0.3377292337500002
mp-1202255,AgSb(SeF3)2,-1.936599045849417
mp-1202258,Nd2Nb2S7O30,-2.3906294375457304
mp-1202260,Lu2Ni17,-0.2103164534210532
mp-1202263,Li4CaB10(HO5)4,-2.655672169345641
mp-1202267,Lu5Pt4,-1.2359294525
mp-1202279,KHoF4,-4.05189936370074
mp-1202283,U6Al43Mo4,-0.1985535881132083
mp-1202291,BiB4(HO3)3,-2.3135947285554903
mp-1202301,PH18PtC6S3ClF6,-0.9298043826668448
mp-1202308,RbPrH8(SO6)2,-2.012119853342083
mp-1202309,AlH4NF4,-2.271267494262
mp-1202310,HfHg4(PCl3)2,-1.1998964993617578
mp-1202318,Dy3(Si3Ru)4,-0.6462520926315787
mp-1202324,P2H10SN6,-0.6068927424077821
mp-1202325,LiAl(Si2O5)2,-3.252295021510416
mp-1202328,Cs2CaV2O7,-2.6440551737176725
mp-1202337,U(Zn10Co)2,-0.0846460365217393
mp-1202342,CsCoF4,-2.5030069536151727
mp-1202344,MgH12(ClO6)2,-1.3247971841960493
mp-1202353,K2PS3,-1.277304707116072
mp-1202354,Yb5Zr3(Ni4As3)4,-0.7884192575925929
mp-1202355,CsCrH24(SeO10)2,-1.441261378999969
mp-1202357,CsRe3(Se2Br)2,-0.7403162017306031
mp-1202358,SrFeBP2(HO5)2,-2.5728746209931086
mp-1202362,Yb4Ta25O68,-3.3574057616666666
mp-1202364,MnSeO3,-1.662671134591784
mp-1202367,Nd11Sn10,-0.7668319207142856
mp-1202368,Nd5Zr3(Ni4As3)4,-0.8282045024999994
mp-1202375,NaB3SeO7,-2.41219432904948
mp-1202377,Zr2Te4Br2O11,-2.116941611776316
mp-1202379,Tm13Zn58,-0.3101382105399062
mp-1202380,Dy(Ni2B)6,-0.392976021842106
mp-1202384,UH4(NO5)2,-1.7026384433376478
mp-1202389,LaVI5O16,-1.4244951668478265
mp-1202399,Tm5(Si5Ir2)2,-0.894282105350877
mp-12024,RbVSe2,-0.9273816274218748
mp-1202407,LaB5H5NO14,-2.3202224388325634
mp-1202410,U(Zn10Os)2,-0.0743380636956521
mp-1202414,Nd10Se14O,-2.0159767975625003
mp-1202424,Li5La5(SiN3)4,-1.3866144048805116
mp-1202425,Ho(PO3)3,-3.0301323289331514
mp-1202445,NaUN3O11,-1.7409907427118745
mp-1202453,Ba8U3(HgS6)3,-1.945891749882812
mp-1202465,Gd3Ge13Os4,-0.3425887357500002
mp-1202482,Cd3H18S4N2O21,-1.542139979763957
mp-1202486,La7Ru3,-0.2807968175000006
mp-1202488,Cs4TeSe15,-0.447628035219019
mp-1202502,Cs4Ge5(PbS4)4,-1.04024393514566
mp-1202504,Rb7NaSi8,-0.0518353020312498
mp-1202505,Cs2Re(ClO)3,-2.071147066043563
mp-1202514,K4Ca(SiO3)3,-2.9330553306691174
mp-1202519,Ba3(AlAs2)2,-0.955570200277778
mp-1202520,Sm2HfS5,-2.3087385687239586
mp-1202534,Ca10Ag(PO4)7,-3.23136789268116
mp-1202537,Nb8S8O45,-2.356242322479508
mp-1202538,Tb3Ge13Ir4,-0.5241275957500008
mp-1202541,Bi8(MoO7)3,-1.8717986091796872
mp-1202542,Lu3Ga5,-0.6046826946874999
mp-1202549,Cs4Os2Cl10O,-1.668222717386714
mp-1202553,Nd6Fe13Bi,-0.0950504859999995
mp-1202556,Tb(NO3)3,-1.560659389491538
mp-1202567,U(PO3)4,-2.8479366213550423
mp-1202574,AgS2(O3F)2,-1.8017030654057573
mp-1202575,Ho2Nb3Ge4,-0.6963928958333333
mp-1202576,Tb4GaSbS9,-1.9408478332083337
mp-1202577,Pr2ThS5,-2.4685970150781245
mp-1202580,TaVO5,-2.896628755000001
mp-1202581,Cs2CrH8Cl5O4,-1.621730885806103
mp-1202587,KHo2F7,-4.241884024133
mp-1202595,Ca5V3ClO12,-3.037573355393332
mp-1202605,Nd26Ga7Co10,-0.2416986148837207
mp-1202615,Ho5IrBr9,-1.6892713753333335
mp-1202624,Ca5P3O13,-3.2541925385459183
mp-1202632,Tm4BClO7,-3.776095220859744
mp-1202636,Yb5(Ge5Rh2)2,-0.7089843564912278
mp-1202645,Y5(Si5Ir2)2,-0.8981416887719299
mp-1202647,La2SbS5Br,-1.7691693734027782
mp-1202662,Sc2Si4W3,-0.5940686272222201
mp-1202664,ErH2Cl3O13,-1.1526260649089466
mp-1202669,Li2CuB4(PbO5)2,-2.3443742483771928
mp-1202671,Pr7C3Br10,-1.4795397932500003
mp-1202673,Na3V3Cr2O12,-2.400806853625
mp-1202678,Cs2U3P6(HO5)4,-2.6723462187648748
mp-1202698,Nd(Ni2B)6,-0.3959007186842104
mp-1202709,K2SnH2Cl4O,-1.7389477617529994
mp-1202711,BaSn2S5,-1.250394249765625
mp-1202716,S2I2O11,-1.337125499166666
mp-1202719,Pr2Sb4Ir3,-0.7068871386111107
mp-1202720,Cs2TeS3,-1.0739938614978446
mp-1202733,BPb2O3F,-2.277889095467618
mp-1202737,Li2MoO4,-2.3394067496825395
mp-1202741,Cs3HgBr5,-1.3791683748659005
mp-1202750,Nd5P12Ru19,-0.8307612389682552
mp-1202753,KTmF4,-4.068744750737777
mp-1202754,Ho3C4,-0.3338027024285712
mp-1202765,Nd(Cd10Ni)2,-0.1116464280434783
mp-1202778,K3Cd16,-0.1129381599473685
mp-1202780,Ca3Ge13Ir4,-0.4323146704999999
mp-1202782,Hg3Pd8Se9,-0.3168568205546876
mp-1202783,Pr4GaSbS9,-1.932118260375001
mp-1202784,Y(Ni2B)6,-0.3946706254385967
mp-1202795,Yb5(Co2Ge5)2,-0.5308225496491229
mp-1202801,LiPO3,-2.719453536497618
mp-1202805,Na4UC3O11,-2.434484004934211
mp-1202806,MgHAu2F11,-1.8858148233362224
mp-1202818,LiZr2(AsO4)3,-2.520376108703704
mp-1202819,Sr2B5HO10,-2.9676943022844444
mp-1202821,Sr3B6O11F2,-3.2393307373240905
mp-1202825,CsLu7S11,-2.422127774989792
mp-1202826,Gd2US5,-2.236248749140625
mp-1202831,ScGe2Os,-0.5281764249999993
mp-1202841,U2B6Os,-0.5207483800000006
mp-1202879,NaGa(SeO3)2,-1.67619028471875
mp-1202890,K2B2Se3O10,-1.9620589040998768
mp-1202893,Th(SO4)2,-2.72790364
mp-12029,Li2CuP,-0.5642489879761907
mp-1202901,Na2YHC2O7,-2.381033867169489
mp-1202910,Zn2As(HO2)3,-1.6378979540299998
mp-1202913,GaH15N5Cl3,-0.8168232848324996