material_id,pretty_formula,formation_energy_per_atom
mp-1077392,TmCuGe,-0.6683611111111117
mp-1077393,TmB2Ir3,-0.696095966666667
mp-1077397,ScCdNi4,-0.3633086708333337
mp-1077398,TbSi2,-0.5627087616666664
mp-1077404,YbSi2,-0.4227371522222221
mp-1077423,TmAlZn,-0.4447166877777781
mp-1077428,NdCu4Ag,-0.1830637422222221
mp-1077442,CeAu2,-0.6778090733333334
mp-1077443,NdScSb,-0.864145496666667
mp-1077453,HfCuGe,-0.5120790116666676
mp-1077466,CaBi2,-0.5379374100000002
mp-1077470,CaNiGe,-0.5523200666666668
mp-1077471,YbBiAu,-0.724254740555556
mp-1077485,HoSnGe,-0.6222157233333329
mp-1077498,ErCu4Ag,-0.2364391905555554
mp-1077503,TiSi2,-0.5628166799999986
mp-1077512,LaGeIr,-0.8511904216666674
mp-1077518,ErCu4Pd,-0.3731905983333329
mp-1077547,TmNi4Au,-0.4103757488888894
mp-1077552,TbNi4Au,-0.3783814733333332
mp-1077553,Sr2BBrN2,-1.5436340627377778
mp-1077556,TbSnGe,-0.6463072049999999
mp-1077578,CeGaAg,-0.3960066294444442
mp-1077593,SmSn2,-0.6218675077777771
mp-1077599,ScAlGe,-0.5889379566666667
mp-10776,K2Sn(AsS3)2,-0.9623089849772722
mp-10777,RbCeSe2,-1.680613561796875
mp-1077722,ScZnPt,-0.9413087733333332
mp-1077738,YbCdNi4,-0.2773545277777778
mp-1077741,YbCu4Ag,-0.2453944116666667
mp-1077750,YbCu4Pd,-0.3601509961111109
mp-1077752,TbCu4Au,-0.3293483566666661
mp-1077762,NdSiPt,-1.1280440366666664
mp-1077776,ScB2Ir3,-0.6202376569444455
mp-1077785,HoAlGe,-0.649936308333333
mp-1077788,BPt2,-0.1757228827777777
mp-1077789,ThSiNi,-0.8262002350000005
mp-1077791,ZrSc2,-0.0219638883333329
mp-1077796,LaInPt4,-0.8268389808333332
mp-1077797,LaGePt,-1.0996540066666658
mp-10778,RbPrSe2,-1.7216449342968745
mp-1077830,Pr2GeRh3,-0.7780709633333321
mp-1077837,LaScGe,-0.7193769883333339
mp-1077840,Mn(BiTe2)2,-0.1813075042364533
mp-1077854,Rh3(PbSe)2,-0.3247117692410707
mp-1077883,In2Rh3S2,-0.697239635178571
mp-10779,RbNdSe2,-1.7243833280468746
mp-1077901,InCo3SnS2,-0.5583246244642857
mp-1077903,Tl2Pd3Se2,-0.3466633378125
mp-1077904,CdPb2(ClO)2,-1.559246232717142
mp-1077905,InRh3PbS2,-0.636952109464285
mp-1077911,UGa5Os,-0.2715927299999998
mp-1077915,HgAsPd5,-0.3072712314285714
mp-1077918,Sr2TcO4,-2.6800543397619045
mp-1077922,Tl2Rh3S2,-0.5121968380357131
mp-1077925,Na5Sn2,-0.1872821378571428
mp-1077929,La2CuO4,-3.0506802849999994
mp-1077930,Ta(MnB2)2,-0.5889559032348107
mp-1077933,GdCu2,-0.2520594466666672
mp-1077942,Rb2TeSe4,-0.6261771163392856
mp-1077944,HgPd5Se,-0.2078835803348216
mp-1077950,Tl2Pd3S2,-0.5407989080357142
mp-1077954,Ce(ZnAu2)2,-0.4894232892857145
mp-1077979,InPd5Se,-0.376960514620536
mp-1077980,Sr(Ag2Sb)2,-0.3029113928571431
mp-1077994,SiSnPd5,-0.6211369407142858
mp-10780,RbSmSe2,-1.7286411088802085
mp-1078000,Mn(CrS2)2,-0.9926925645935968
mp-1078003,DyGa5Co,-0.4624640464285713
mp-1078005,K(Cu2Sb)2,-0.1359928189999999
mp-1078033,UGa5Rh,-0.4448750057142853
mp-1078035,Sm2Cr2C3,-0.234004198095238
mp-1078049,Zn(GaS2)2,-1.1020244210714285
mp-1078054,Sn2Rh3S2,-0.6971880794642848
mp-1078058,Ti(CrS2)2,-1.2918827532142854
mp-1078064,Ca(CdAu2)2,-0.4542857449999994
mp-1078074,UGa5Pt,-0.4357258699999998
mp-1078079,AgPPd5,-0.3016923674149662
mp-1078085,Cs2PdCl4,-1.740785731271724
mp-1078086,In2Ni3Se2,-0.3099515063839284
mp-1078089,Pd3(PbSe)2,-0.4106528792410714
mp-1078092,PrIn5Ir,-0.3887040592857147
mp-1078098,UGa5Fe,-0.2679171899999996
mp-10781,RbGdSe2,-1.740240520546875
mp-1078100,CdPPd5,-0.4594175569387754
mp-1078114,ReCl6,-1.044769429222857
mp-1078125,NdIn5Co,-0.2639916878571431
mp-1078132,La2Fe(SeO)2,-2.539116391026785
mp-1078142,DyIn5Co,-0.2308604807142857
mp-1078159,Ce2Fe(SeO)2,-2.404513236741072
mp-1078167,PrIn5Co,-0.2643198199999997
mp-1078180,Sr2MgOsO6,-2.635300335416666
mp-1078181,SiBr3,-0.7780202812499999
mp-1078185,Ba2LuSbO6,-3.13741636625
mp-1078186,KZn2BCl2O3,-2.215378797955926
mp-1078188,LiOsO3,-1.7477985900833324
mp-1078190,Er2Cr2C3,-0.3280373185714284
mp-1078191,Ba2TeO,-2.3372470140625
mp-1078195,SiI3,-0.3729727274999996
mp-10782,RbTbSe2,-1.7312631380468746
mp-1078202,Yb2SnGe2,-0.6234039556666666
mp-1078203,CsTlF3,-2.5344538813002067
mp-1078209,LiLa2FeO6,-2.818874498916667
mp-1078216,Sr2Ti2Bi2OF2,-2.30142384744037
mp-1078224,CeAl4Si2Rh,-0.6206915506249997
mp-1078225,BaLaSi2,-0.5977418837499995
mp-1078231,Sr(GaRh)2,-0.7111695603333323
mp-1078235,TmInPd,-0.8121305544444439
mp-1078237,NaNiF3,-2.530134416714
mp-1078240,Si6Ni3Au,-0.3237616090000003
mp-1078242,YAlPd2,-0.944994549583333
mp-1078244,ScNi2SbO6,-2.11149957875
mp-1078247,Cr2FeS4,-0.922522548928572
mp-1078248,Gd2Cr2C3,-0.2668598785714278
mp-1078250,Cs2AgBiBr6,-1.1394267499195403
mp-1078257,Sr(SnHg)2,-0.3479265963333336
mp-1078258,Cs2AgBiCl6,-1.69565491487554
mp-1078259,GaBO3,-2.538924125416667
mp-1078261,Ho2Ni2Sn,-0.6044121610000005
mp-1078265,Cs2YbCl4,-2.5693993293669624
mp-1078268,Pr2BC,-0.2751173183333337
mp-1078269,Sr2UCu2S5,-1.6772275138958337
mp-1078274,Ca2SnGe2,-0.5562827800000001
mp-1078278,CrB4,-0.3090288266666661
mp-1078280,Ca2GaPd2,-0.7877152149999993
mp-1078291,LaCo2AsN,-0.7917869474760011
mp-1078292,CdCu2SnS4,-0.7446358978125001
mp-1078295,NaNbO3,-2.85671431175
mp-1078298,SbN(OF3)2,-2.0834484077020003
mp-10783,RbHoSe2,-1.7241225205468744
mp-1078300,ScF3,-4.3196622971425
mp-1078303,Ba2YOsO6,-2.8761888300833327
mp-1078304,Ca2AlPd2,-0.7837914759999997
mp-1078316,Ce2AlRu2,-0.5165877910000006
mp-1078326,Ca2GePd2,-0.7970632389999999
mp-1078335,Pr2BiN,-1.2260664955949991
mp-1078343,UGa5Ru,-0.3475853999999998
mp-1078348,CeGa3Pd,-0.6827020299999994
mp-1078349,La2BiN,-1.3580239943450003
mp-1078354,Sr2CrOsO6,-2.503917300083333
mp-1078355,ScNiSn,-0.6430843383333334
mp-1078358,LiOsO3,-1.7537396940833323
mp-1078362,Ca2AlPt2,-1.012422985
mp-1078366,Bi2S2O,-1.0699592314999995
mp-1078367,InNi2SbO6,-1.6147059962499994
mp-1078369,Gd2Al4CoGe2,-0.6508120194444452
mp-1078370,CeBi2Au,-0.5617572799999992
mp-1078372,Na2MgPb,-0.1355056583333334
mp-1078378,YbInPt,-0.9214943200000004
mp-1078391,CaZn(CO3)2,-2.26410826775
mp-1078394,Ba2LuBiO6,-2.8734693737499994
mp-1078397,LaBiS2O,-2.1638725565000003
mp-10784,RbErSe2,-1.7197653005468752
mp-1078402,ScGePd,-0.9362345250000002
mp-1078405,Ba2ThCu2Se5,-1.435457456171875
mp-1078408,LaNi2AsN,-0.838085802476001
mp-1078409,Ba2LaBiO6,-2.7977114182500005
mp-1078410,Ba2ZnTeO6,-2.37668826225
mp-1078411,Sr(SnAu)2,-0.565948165333333
mp-1078419,Na3PSe4,-0.7492043178683034
mp-1078420,ZnCu2GeTe4,-0.187457213125
mp-1078427,CeAl4Si2Ir,-0.6377622406249994
mp-1078428,Ca2GaPt2,-0.9736597419999996
mp-1078430,ScCuGe,-0.6608655149999999
mp-1078435,BaCd2Pt,-0.5195200087500003
mp-1078439,CeIn7Pt2,-0.4557205064999998
mp-1078441,Ba2UCu2Se5,-1.2337684491718748
mp-1078443,As2Se3,-0.1184625164062502
mp-1078445,Nd2BiN,-1.2523416518450006
mp-1078450,CeCdPt,-0.7815675816666664
mp-1078453,BaAlGeF,-1.8238502165475
mp-1078457,Ba2ZrTiO6,-3.570139793750001
mp-1078458,CrFeO3,-2.134373038749999
mp-1078460,Li2CuSn2,-0.3170491216666665
mp-1078462,BaMg4Ge3,-0.4039506029166664
mp-1078483,Ca2GePt2,-0.9527403810000002
mp-1078489,HoAlCu,-0.4573053133333336
mp-1078497,YbGa2Ni,-0.5965276304166669
mp-1078498,ZnCu2SiTe4,-0.1765878399999998
mp-1078499,Er3(CoGe2)2,-0.7165202055555555
mp-10785,RbLuSe2,-1.6988117255468749
mp-1078504,YbIn2Pt,-0.7422446791666664
mp-1078507,NdNiSb2,-0.7215795300000005
mp-1078508,HoTe3,-0.90884347625
mp-1078511,CuAsPtS2,-0.6407607122500003
mp-1078514,ZrNiP2,-0.9424004055357144
mp-1078518,Sr2NiIrO6,-2.050095244083333
mp-1078519,LaSb2Pd,-0.88818041625
mp-1078524,ErZnNi,-0.4779690850000004
mp-1078526,GaPd,-0.6643249725000002
mp-1078527,ThAlPd,-0.8098545377777779
mp-1078533,Th(AlAu)2,-0.7027711009999997
mp-1078535,Na2TcF6,-2.7206928396822225
mp-1078537,PrLuS3,-2.4714980028750007
mp-1078539,Sr2MgMoO6,-2.9067107764166664
mp-1078540,Ni6Ge2B,-0.3109543564814822
mp-1078542,GdZnAsO,-1.9898944328124992
mp-1078543,YbAlCu,-0.3404702755555557
mp-1078544,Sc2InCu2,-0.3685450709999998
mp-1078545,ErAlPd,-0.88880267
mp-1078547,YSnPt2,-1.0032543445833335
mp-1078552,Li2H6Pt,-0.4575195294503705
mp-1078556,Dy2NiAs2,-1.242291932
mp-1078557,PrPt,-1.11136782125
mp-1078562,SrAgSF,-2.3114887460787505
mp-1078567,Sr(BiPd)2,-0.5969453653333332
mp-1078574,HfNi2Sb,-0.5283169437500002
mp-1078577,DyNiGe2,-0.6988698512500005
mp-1078581,ThAlNi,-0.6083342655555555
mp-1078582,UInPt,-0.449837303333333
mp-1078585,GdAl,-0.4135940987499999
mp-1078586,UGaCo,-0.2899617194444441
mp-1078592,ErAlCu,-0.4632589933333327
mp-1078593,LaInNi,-0.4686547438888884
mp-1078597,ZnCd3Se4,-0.6412533392968749
mp-1078600,TmAgTe2,-0.888597046666666
mp-1078602,ZrIn3,-0.2062441662500003
mp-1078612,LaTe3,-1.0830180862500003
mp-1078613,DyPt,-1.28204155125
mp-1078614,LaCdPd,-0.6995355261111106
mp-1078623,Zr2BIr6,-0.812960622037036
mp-1078624,LaCoC2,-0.2854729912500007
mp-1078625,Tm2InAu2,-0.8111136103333336
mp-1078626,TbSnPt2,-1.0021049800000004
mp-1078630,Ba2ThCu2S5,-1.8862801735625008
mp-1078631,SrBiS2F,-2.139626602821333
mp-1078634,LaFeO3,-2.957646867749999
mp-1078635,ScGeOs,-0.6302672605555542
mp-1078636,Ba2ZnAs2,-0.9504701739999998
mp-1078639,DyMgPd,-0.6955008388888891
mp-1078645,YCoGe2,-0.6354789395833338
mp-1078659,CaRhO3,-2.1083243197499995
mp-1078668,NiPbO3,-1.2231739987500003
mp-1078671,Sr2CaWO6,-3.029995414583333
mp-1078673,NdInNi,-0.4509798733333336
mp-1078674,PrHgPd,-0.6812541483333329
mp-1078676,Tl2SnHgSe4,-0.3515306111718748
mp-1078677,Sr2H6Os,-0.6732993094503704
mp-1078684,ErCdGa,-0.5012553288888889
mp-1078690,YbCdGe,-0.5575051344444439
mp-1078692,PrAlCu,-0.3613240394444443
mp-1078693,BaCdSbF,-1.9161076852975
mp-1078694,ThGaRh,-0.9178395855555558
mp-1078698,ZrCuGeAs,-0.5919657887500005
mp-1078699,NbPt3,-0.6471451649999995
mp-1078703,NaZn4As3,-0.2501067881249996
mp-1078704,ErNiBC,-0.5442255483333343
mp-1078709,Na2BiAu,-0.3723992725
mp-1078712,Hf2TlC,-0.6302528787499995
mp-1078717,La(NiSn)2,-0.571437478
mp-1078721,InPd3,-0.4616740262499998
mp-1078724,LiAsSe2,-0.5537991778385418
mp-1078725,Ba2UZnO6,-3.1859459532500005
mp-1078726,CsHoS2,-2.149533658545259
mp-1078729,Zr6CuBi2,-0.2917415866666665
mp-1078736,Pr(NiSb)2,-0.6463245910000005
mp-1078737,HoCoGe2,-0.6193039050000007
mp-1078738,Er2InCu2,-0.3922867339999996
mp-1078739,YAgSb2,-0.6212179854166671
mp-1078740,Ho3(CoGe2)2,-0.7194898777777775
mp-1078741,Ba2CuOsO6,-2.1210463877500003
mp-1078746,Sr2FeH6,-0.6034053238948142
mp-1078748,Sr2TaInO6,-3.106016263083333
mp-1078751,Na2PdSe2,-0.8125338009374999
mp-1078752,SmCoGe2,-0.6600291258333337
mp-1078756,ZrGaRh,-0.8321532577777775
mp-1078757,NdAlNi,-0.5088681677777771
mp-1078758,Sr2NiRuO6,-2.1143681210833334
mp-1078760,DySnPt,-1.095393421111111
mp-1078762,RbCu4Se3,-0.3569893618164061
mp-1078767,HfAlNi,-0.6471676199999999
mp-1078771,Tb2Ni2Sn,-0.5865103660000003
mp-1078772,TmAgGe,-0.6352263899999997
mp-1078776,InBiS3,-0.8336096278749998
mp-1078777,U2TlSe6,-0.9160624737847224
mp-1078782,YCoSi2,-0.7810331870833336
mp-1078784,Sc3RhC4,-0.4925224556250001
mp-1078787,Sm(AlAu)2,-0.7364448456666665
mp-1078790,DyInPt2,-0.95899587125
mp-1078793,Th(GePt)2,-0.9209007669999998
mp-1078794,Ce(NiSn)2,-0.5037750379999999
mp-1078797,SmMnSi2,-0.6337452019971259
mp-1078799,LiNbF6,-3.4177117604758336
mp-1078801,CsI,-1.542615550215517
mp-1078802,LaVGe3,-0.5759370650000001
mp-1078804,ThInNi,-0.4756628533333334
mp-1078805,SmSb2Pd,-0.8309791158333324
mp-1078811,Nb2GeC,-0.5111968362500008
mp-1078813,YZnPd,-0.7512408094444444
mp-1078814,Ce2C2Cl,-1.0124072616520003
mp-1078820,DyMgAg,-0.2715963788888891
mp-1078823,Cs2Zr(AgTe2)2,-0.8019799380587485
mp-1078825,SrCd2Pd,-0.4979115716666666
mp-1078826,ErAlNi,-0.6203142066666669
mp-1078827,YSnRh,-0.9093489322222218
mp-1078829,Gd2Cl3,-2.2010329989560007
mp-1078832,ZrGaNi,-0.646999371111112
mp-1078833,Tb(AlAu)2,-0.71598751
mp-1078834,LiRuF6,-2.423645846725834
mp-1078837,DyZnPd,-0.757894848333334
mp-1078841,LaMgPd,-0.6678622616666661
mp-1078849,Ca(GaP)2,-0.6741415624285715
mp-1078853,DyCdCu,-0.2969982677777779
mp-1078854,ErNiGe3,-0.5557368019999999
mp-1078857,DyAlCu,-0.4528918544444443
mp-1078858,U3Si,-0.2396858037499996
mp-1078859,Er6MnTe2,-0.5798985966283531
mp-1078860,SrGeAu3,-0.5197255363333333
mp-1078861,Mg(BrO3)2,-0.9502740256481488
mp-1078866,Y(BC)2,-0.4383651630000017
mp-1078868,Sr2MgReO6,-2.881002824916666
mp-1078870,UGaRh,-0.5513667366666652
mp-1078874,Ba2CeTaO6,-3.49456665825
mp-1078876,ErSnIr,-0.8574930122222229
mp-1078880,UGaRu,-0.3503036822222217
mp-1078884,HfSiRu,-0.9446410250000004
mp-1078886,Ce(AlAu)2,-0.6968909259999997
mp-1078889,La(AsIr)2,-0.8099944580000006
mp-1078895,Mn3Pd5,-0.2546685298706901
mp-1078899,LuNi,-0.5228499687500001
mp-10789,Yb2Ge6Pd,-0.5027790292592584
mp-1078902,ThAlPt,-1.0864016444444446
mp-1078903,SrZnSbF,-1.8909881244641664
mp-1078908,Ca2CdP2,-0.9066047804285716
mp-1078909,CdCu2GeTe4,-0.1833381537499998
mp-1078911,TmSnPd,-0.9308394911111112
mp-1078916,Tm2InCu2,-0.3951626753333329
mp-1078918,ZnCu2SnSe4,-0.3948938930468748
mp-1078920,LaCu,-0.1682791325000003
mp-1078924,Ce(NiSb)2,-0.6192545530000004
mp-1078938,YAl2Pd5,-0.9467846379166662
mp-1078947,Nd(AlAu)2,-0.74571033
mp-1078948,Nd(BIr)2,-0.7316090683333328
mp-1078957,Ta3Be2,-0.1787641140000005
mp-1078961,LiTbGe,-0.7160948699999999
mp-1078963,V3GaN,-0.7550957504759992
mp-1078965,Cs2Sb2Pd,-0.4921538371724139
mp-1078969,Ba2NbVO6,-3.12694485675
mp-1078973,Sr(InP)2,-0.5875734027619046
mp-1078990,CsTmS2,-2.1446157556285925
mp-1078991,ErTe3,-0.8901476749999997
mp-1078995,Sr2MgTeO6,-2.7293842384166664
mp-1078999,NdAlH6,-0.3918819302149998
mp-1079003,HoNiSn,-0.6770188144444447
mp-1079007,Ce3Si2,-0.5735091019999998
mp-1079012,Cu2SnHgTe4,-0.1545267237499996
mp-1079037,LaSi2Ni,-0.8189838749999998
mp-1079038,HfSnIr,-0.7006669833333332
mp-1079044,TmNiGe3,-0.5421027586666668
mp-1079048,V3PN,-1.025566514190284
mp-1079050,LaAsO3,-2.8751923187500004
mp-1079052,Er2CdGe2,-0.7026663299999996
mp-1079059,Er2InAu2,-0.8170925879999998
mp-1079064,PrCoGe2,-0.6575285062499994
mp-1079069,La2Mn2Se2O3,-2.4919866810742044
mp-1079072,Mg3In,-0.0761649975
mp-1079075,YGa2Pd,-0.8089770258333333
mp-1079076,Hf2PbC,-0.6298983737500006
mp-1079079,HfAsRu,-0.789152784444446
mp-1079080,CsCd4As3,-0.2533719147413791
mp-1079085,LuInPd,-0.8024035477777779
mp-1079088,NaAsF6,-2.7212377390175004
mp-1079090,Er3Sn7,-0.5161479479999997
mp-1079091,PrCu,-0.1517641674999996
mp-1079093,TmSiAg,-0.589015419444445
mp-1079096,Cs2NaLaBr6,-1.8750722845862071
mp-1079097,ErMgAg,-0.2681312955555555
mp-1079103,LaCuSb2,-0.7307691125
mp-1079110,Hf3AlN,-1.0340534944759994
mp-1079112,Y2InPd2,-0.8680805863333333
mp-1079113,Ba2SrUO6,-3.5097645424166672
mp-1079121,SmCoC2,-0.3050184120833332
mp-1079130,Ba2ZnBi2,-0.7423470800000004
mp-1079135,Nd2CdGe2,-0.7331108980000003
mp-1079136,U2InPt2,-0.5379483210000003
mp-1079141,Pr(GeIr)2,-0.7784090939999999
mp-1079146,Th3Si2,-0.6617855180000006
mp-1079148,LuSnRh,-0.9137197511111104
mp-1079149,Ba2ZnSb2,-0.87387257
mp-1079155,Hf6Al2Pt,-0.4735935588888888
mp-1079166,Tb(GePt)2,-0.867199472
mp-1079167,HfGeRh,-0.8806580333333329
mp-1079168,ThGaPt,-1.061443853333334
mp-1079169,Ba2NdIrO6,-2.70238537275
mp-1079171,NdNiGe3,-0.600929997
mp-1079175,MgGaAu2,-0.4305601245833332
mp-1079178,CeCoGe2,-0.6632515762499995
mp-1079180,HoPt,-1.2960063062499998
mp-1079181,LiOsF6,-2.4639049767258334
mp-1079198,Sm(CrB3)2,-0.5527417637037044
mp-1079203,NdGe2Pd,-0.7881869662499996
mp-1079204,Sm(CuSn)2,-0.3965926766666669
mp-1079205,Tb2NiAs2,-1.2464088349999998
mp-1079206,PrInPd,-0.7735267072222219
mp-1079211,Ce(PIr)2,-1.046595169428571
mp-1079217,LaGa2Ni,-0.624119425
mp-1079218,Ho3Sn7,-0.5341358589999998
mp-1079221,Th(SiPt)2,-1.1240223119999997
mp-1079229,Mg3Pd,-0.4146312874999998
mp-1079232,Cs2HgPdCl6,-1.5178804645422068
mp-1079238,ZrReSi,-0.7706540888888895
mp-1079239,Ho6MnTe2,-0.5832131021839078
mp-1079242,DyCdGa,-0.5185246188888885
mp-1079245,SmPdPb,-0.7315298477777772
mp-1079246,ZrGaCo,-0.5535383883333336
mp-1079249,TbH3,-0.7007578289649992
mp-1079253,Tb6CoTe2,-0.6644183350000006
mp-1079255,Tb(BIr)2,-0.7452262783333339
mp-1079260,InSe,-0.509935558671875
mp-1079261,ErCuSb2,-0.56925083375
mp-1079264,Nb(SBr)2,-1.1103777202500005
mp-1079267,LiHg3,-0.1796629241666666
mp-1079270,Tm2NiSn6,-0.4296003362962963
mp-1079273,La3Sn7,-0.6629982945000001
mp-1079278,Sr(AlAu)2,-0.6387506843333334
mp-1079283,LaAlH6,-0.4453968533399997
mp-1079288,Pr(PRh)2,-1.1043432214285716
mp-1079294,TmCuSb2,-0.5487284308333331
mp-1079295,ErSi,-0.8225029875000001
mp-1079296,HfAu3,-0.4813664062500002
mp-1079305,TbPt,-1.2666826624999992
mp-1079307,Dy3(CoGe2)2,-0.7218379177777778
mp-1079308,SmAsRuO,-2.0395639411458344
mp-1079310,CeHgPd,-0.6103140938888885
mp-1079311,Nd(PRh)2,-1.1098167074285712
mp-1079312,NdSb2Au,-0.7046186049999994
mp-1079313,V3GeC,-0.4754943479999994
mp-1079316,Dy(GePt)2,-0.8634372659999997
mp-1079320,BaZnAsF,-1.9997752027975
mp-1079321,ErAgS2,-1.6336477886458334
mp-1079329,HoZnPd,-0.762878499444445
mp-1079332,HfCuSiAs,-0.5389226612500009
mp-1079334,SrTcO3,-2.462482104083333
mp-1079335,Er(NiB)2,-0.5709985363333331
mp-1079341,DyZnNi,-0.4627712116666676
mp-1079342,CeZnNi,-0.4053667433333332
mp-1079347,La(AsRh)2,-0.9797754669999996
mp-1079348,B3Os2,-0.2535914919999996
mp-1079355,Nd(AsRh)2,-0.928369085
mp-1079357,TbAlCu,-0.4464572366666665
mp-1079361,YAlCu,-0.45724741
mp-1079364,Cs2TcF6,-2.8769315581113406
mp-1079386,TbZnPd,-0.7517170927777781
mp-1079387,PrInNi,-0.4380585227777776
mp-1079388,Nd(BRu)2,-0.5092786193333325
mp-1079392,CeCoSb2,-0.6277229000000002
mp-1079394,LiDyGe,-0.7158902966666668
mp-1079395,CeGe,-0.6975769774999998
mp-1079399,V3Fe,-0.1712836937499986
mp-1079402,CeSi2Ir,-0.945582912499999
mp-1079403,Sr2CoOsO6,-2.276564336583333
mp-1079408,Li5In4,-0.2820872592592592
mp-1079423,HoSnIr,-0.8556038777777775
mp-1079428,Sm(BIr)2,-0.7415643029999999
mp-1079433,BaMg4Si3,-0.2814889735416663
mp-1079435,ErMgPd,-0.7007665544444445
mp-1079437,FeB4,-0.1709287156666661
mp-1079438,Ta2N,-1.044401840793333
mp-1079448,PrCdGa,-0.520692056111111
mp-1079458,Cs2NaCeCl6,-2.455935405542207
mp-1079460,Ti3Sn,-0.3042876124999996
mp-1079462,Sm(GePt)2,-0.897865285666667
mp-1079467,YAu3,-0.7132639233333329
mp-1079471,TmZnPd,-0.771372021666666
mp-1079478,PrAgSb2,-0.6887972133333333
mp-1079483,LiAuF6,-1.7874417979758337
mp-1079487,Nb(SBr)2,-1.1142277812500003
mp-1079491,LiIn2CuSe4,-0.646936504505208
mp-1079498,Pr2InCu2,-0.3178168939999999
mp-10795,TaTlS3,-1.1869764378749998
mp-1079500,CaNiBN,-0.9732473351783336
mp-1079501,Tb2InAu2,-0.8132521489999995
mp-1079508,Y2InCu2,-0.3932064933333336
mp-1079513,K2As2Pt,-0.4997348882000004
mp-1079518,Er(SiPt)2,-1.0633667649999992
mp-1079540,La(SbPd)2,-0.8938711230000003
mp-1079541,ZnCu2SnS4,-0.7901197684375005
mp-1079546,Nb2GaC,-0.5179055424999994
mp-1079552,TbGa2Ni,-0.6457187424999997
mp-1079553,CeInRh,-0.7098383083333325
mp-1079559,CdPSe3,-0.3093679201205361
mp-1079560,Nb2CrB2,-0.6270951053333335
mp-1079568,NaIrO3,-1.4869498147499995
mp-1079572,LaNiSb2,-0.7667807037500003
mp-1079583,Rb2NaAlF6,-3.452261824714
mp-1079584,U2InIr2,-0.4560240590000006
mp-1079585,Nb2N,-1.0035100274599986
mp-1079588,Nd2InNi2,-0.4262087539999996
mp-1079595,NdInNi2,-0.405851975
mp-1079596,Er2NiSn6,-0.4446603900000004
mp-1079597,ScGeRh,-1.0004842016666655
mp-10796,HgSeO4,-0.9761456028906248
mp-1079600,Cs2S3,-1.2041224600474134
mp-1079601,ThGaNi,-0.6399954477777783
mp-1079603,BaCdPF,-1.927244736190357
mp-1079605,Dy2NiSn6,-0.4685181655555557
mp-1079607,LiLaSn2,-0.6431280316666665
mp-1079609,Bi(BO2)3,-2.58042271025
mp-1079613,Sm(GeIr)2,-0.7826724926666657
mp-1079615,Ba2UCdO6,-3.12091454675
mp-1079618,TbAl4,-0.3386708030000001
mp-1079622,Ba3(ZnAs2)2,-0.8545279455555558
mp-1079626,TbNiBC,-0.506203917083333
mp-1079627,PrAlH6,-0.39238715334
mp-1079630,Ba2TaInO6,-3.085878814749999
mp-1079634,Tb2SnAu2,-0.8427551519999994
mp-1079635,GaMo2C,-0.1159037687499999
mp-1079643,TaMnGe,-0.2465812532183899
mp-1079644,Tm2CdGe2,-0.6857187983333333
mp-1079645,K2CdSnSe4,-0.8310023156718751
mp-1079647,BaAgSeF,-2.155492425466772
mp-1079654,Sm2MnGa6,-0.5469790895913155
mp-1079664,Nd2InNi2,-0.429511927
mp-1079666,Ba2CdAs2,-0.9458862710000002
mp-1079667,Tm2CoGe2,-0.7549476513333332
mp-1079670,TmSb(PbO3)2,-2.3303363045833336
mp-1079673,ThSe3,-1.3667482730078122
mp-1079676,LiBeH3,-0.3074061845053332