material_id,pretty_formula,formation_energy_per_atom
mp-3949,K7LiSi8,-0.1048295492291666
mp-395,ZrAl3,-0.4869336574999998
mp-3950,ErInCu,-0.4105319411111112
mp-3951,Ti2CuS4,-1.5301523253571432
mp-3952,BaY2O4,-3.665416883809524
mp-3953,CaCO3,-2.6987868547500007
mp-3954,PrPS4,-1.5104446545535712
mp-3955,AlPO4,-3.1217889255952382
mp-3956,Sr3UO6,-3.54397186175
mp-3958,Er(SiOs)2,-0.7190821819999996
mp-396,YbGa,-0.5182743533333332
mp-3960,CaUO4,-3.7066448216666665
mp-3962,LaPO4,-3.5128750572619043
mp-3963,K2CO3,-2.1250380095416666
mp-3967,NaNO,-1.105457190376666
mp-397,KCd13,-0.0600857494999999
mp-3970,K2TiF6,-3.5598630381266667
mp-3972,Ce2SO2,-3.4675275731249995
mp-3974,Ba5B4O11,-3.1592136014791663
mp-3975,K2TaF7,-3.5347483546830007
mp-3977,CsB3O5,-2.819793649631225
mp-39770,Zr2P3H4NO12,-2.639177057162468
mp-3978,SrSiO3,-3.4513637490833333
mp-398,ErGa3,-0.5267336274999992
mp-3980,LiSbF6,-2.8918293836008333
mp-3982,KCuO2,-1.387628785125
mp-39823,Na8Al6Si6CO27,-3.033137220703125
mp-39843,K2NaVOF5,-3.04827903282
mp-3985,Tm(MnGe)2,-0.428401812528736
mp-399,Te2Pt,-0.3970017166666662
mp-3991,UMoC2,-0.3010174400000007
mp-3992,PrSF,-3.372962391438333
mp-39938,K2Re3CS5N,-0.9675069976254173
mp-3995,La(CuSi)2,-0.5930153929999996
mp-3996,GaAsO4,-1.951425156944444
mp-3997,Sm(CuSi)2,-0.5886985686666669
mp-3998,LaTaO4,-3.715289158333332
mp-400,NdAl2,-0.5019289333333337
mp-4001,BaTaS3,-1.8813047668750005
mp-4002,Li2ZrF6,-3.7003795033859257
mp-4006,ErPO4,-3.5229773597619043
mp-4007,Nd(SiNi)2,-0.8112999999999999
mp-4008,ZnGeAs2,-0.1668560674999999
mp-4009,BaPdS2,-1.5526490503124997
mp-401,Sc2S3,-2.3109069373750004
mp-4013,Nd(SiRu)2,-0.8879378799999997
mp-40134,ZnSiH12(OF)6,-1.9549502891569228
mp-4014,Pr(CuSi)2,-0.5855480409999998
mp-40143,Cs2KZrOF5,-3.4002742931062064
mp-40144,SiNiH12(OF)6,-1.9118338939646145
mp-4016,TlGaS2,-0.967868605
mp-40161,NaHf2(PO4)3,-3.262308025317461
mp-4019,CaTiO3,-3.56657974325
mp-402,CdP2,-0.1263321415476195
mp-4022,Zr2CoSi2,-0.8959815629999994
mp-40226,Na4Ga3Si3IO12,-2.621705466304348
mp-4024,DyAgTe2,-0.9145295595833334
mp-4025,TmNiSb,-0.9008587027777786
mp-4026,KCrS2,-1.2669763223125008
mp-4030,Rb2Pt3S4,-1.0097500719444443
mp-4034,LaTe2Se,-1.2525261980859377
mp-4035,RbReO4,-2.3652616187499995
mp-4037,TmNiC2,-0.3488654233333337
mp-40373,In14Ga3Pt2O8F15,-2.169856841258333
mp-4038,Sm3S3N,-2.2783529659649995
mp-4041,Yb(AlGe)2,-0.3935346353333336
mp-4043,NbCu3Se4,-0.5149268749218745
mp-4044,ErAgSe2,-1.1987669201302085
mp-40451,NaGd3Ti2(SbO7)2,-3.138346630795455
mp-4047,Cs2SiF6,-3.459668009778008
mp-40478,NaDy3Ti2(SbO7)2,-3.159923597613637
mp-4048,Sr6(RhO3)5,-2.1706718095673074
mp-40484,NaNd3Ti2(SbO7)2,-3.1070542426136374
mp-405,Ga2Pd5,-0.5679377410714282
mp-40502,CsTiCoOF5,-3.163791309459004
mp-4051,AlPO4,-3.128535329761904
mp-40519,Na3Sr7Ta3Ti7O30,-3.408815297983333
mp-4053,YbSnPd2,-0.8228052016666663
mp-4054,YAl3Ni,-0.5992132196666666
mp-4056,CaSc2O4,-3.793305262142857
mp-4057,CsBF4,-3.337328375587394
mp-40575,LiNi2P4H3O14,-2.231173060179683
mp-406,CdTe,-0.4637142999999999
mp-40630,CaPrMn2O6,-2.755284557873034
mp-4064,Ca(NiP)2,-0.8527254424285715
mp-4065,Dy(SiIr)2,-1.09364264
mp-4066,KGaO2,-2.200345437
mp-40668,NaCoP2HO7,-2.3469991130844057
mp-40674,Sr5V3O12F,-3.1530956616439685
mp-4068,Na2GeS3,-1.1759250315624996
mp-40685,NaSm3Ti2(SbO7)2,-3.1220871901136373
mp-4071,Er2(NiB2)3,-0.5865410709090924
mp-4072,Sm(SiRu)2,-0.8909081986666664
mp-4073,Sm(CoB)2,-0.5058491160000003
mp-4075,TbZrSb,-0.804272621666667