material_id,pretty_formula,formation_energy_per_atom
mp-1079677,GdSi2Ni,-0.8225366350000005
mp-1079679,K2CdSn,-0.2287552289999999
mp-1079681,ZrAu3,-0.5027287824999993
mp-1079682,CeRhPb,-0.6517509261111114
mp-1079688,Hf4CuSi4,-0.7571958455555559
mp-1079695,V3GeN,-0.7985927664759999
mp-1079696,USnRh,-0.4721237322222215
mp-1079697,SmPRu2C,-0.6613958983809525
mp-1079698,CeSb2Au,-0.7023739362499999
mp-1079699,PrAlNi,-0.4874069205555555
mp-10797,CaSiNi2,-0.5467414587499997
mp-1079700,Dy6CoTe2,-0.6608487950000005
mp-1079701,UCoC2,-0.159548611249999
mp-1079704,Tb3Sn7,-0.5648874139999996
mp-1079705,Ba2LuTaO6,-3.63621554875
mp-1079706,Ti5Al2C3,-0.7390498550000004
mp-1079709,YbSnIr,-0.6768582044444444
mp-1079717,Sr2Ti2Sb2OF2,-2.4144849596625924
mp-1079718,Rb2Ni3S4,-1.019037021944445
mp-1079725,Er6CoTe2,-0.6533009238888892
mp-1079726,Zr2SeN2,-1.723184737420749
mp-1079727,LuSnPt,-1.0790505144444442
mp-1079743,SmMgPd,-0.6739037799999994
mp-1079744,SmCdPd,-0.683750945555555
mp-1079745,ErGa2Pd,-0.7982374462499999
mp-1079747,Sr2Ti2As2OF2,-2.5581228407737027
mp-1079756,PrMgAg,-0.2592807183333331
mp-1079758,TbHO2,-3.0412560502799995
mp-1079764,La(AlPd)2,-0.8722901789999995
mp-1079772,Ca(InP)2,-0.5832127804285718
mp-1079773,Nd(GePt)2,-0.9129698409999996
mp-1079776,Hf2Co7,-0.2550443461111105
mp-1079778,Sr2ZnWO6,-2.681334721583333
mp-1079779,Tb2InCu2,-0.3837326789999998
mp-1079780,LaHgPd,-0.7226635505555552
mp-1079784,Sr(RuO3)2,-1.9226210921296296
mp-1079785,Y2CdGe2,-0.7431264073333331
mp-1079790,TbSnPt,-1.094910734444444
mp-1079794,LuSiAg,-0.5736741394444438
mp-1079796,Ti3Pd,-0.3476849662499992
mp-1079797,SmCdCu,-0.2812384755555557
mp-10798,HgSeO3,-1.0511293482187505
mp-1079802,YNiGe2,-0.7048155820833326
mp-1079803,Th(BOs)2,-0.518489653333333
mp-1079810,HfSn2,-0.2801441699999998
mp-1079811,SmAu,-0.8339275316666663
mp-1079815,PrSi2Rh,-0.9208075987499996
mp-1079819,LuAlNi,-0.6360786233333336
mp-1079822,Hf2InPd2,-0.6364185079999999
mp-1079824,Th(CoP)2,-1.064902219428572
mp-1079826,ErSnPt,-1.0929619244444444
mp-1079831,HfReSi,-0.7909425544444433
mp-1079837,Gd(BOs)2,-0.4658939893333326
mp-1079838,Dy2CdGe2,-0.7247978920000001
mp-1079839,Ba2GdMoO6,-3.081371523750001
mp-1079840,Dy2Ni2Sn,-0.5975757640000005
mp-1079841,Pr(GePt)2,-0.9171503719999996
mp-1079842,HfGaRh,-0.8291737955555539
mp-1079843,LaMgAg,-0.2770100205555555
mp-1079844,ThGaIr,-0.9294425833333344
mp-1079846,ThAlIr,-0.9725274466666676
mp-1079852,ErZnPd,-0.7671248294444442
mp-1079853,SrMg2Pd,-0.4647447145833334
mp-1079855,LiPd7,-0.1845941383333329
mp-1079860,HfGaNi,-0.640085493333333
mp-1079861,TmCoGe2,-0.5857024083333338
mp-1079862,SrTl2Pd,-0.4391910566666666
mp-1079871,Cs2KSmCl6,-2.4941989651755403
mp-1079874,ErSnPd,-0.9390087088888897
mp-1079880,ErPdPb,-0.7148327055555552
mp-1079881,CeSb2Pd,-0.8379100512500006
mp-1079885,LiSbS2,-1.0021279307291664
mp-1079889,ZnAg2SnS4,-0.7064870267708336
mp-1079890,Al2CuIr,-0.672348992499999
mp-1079891,Ba2Br2O,-2.56172573825
mp-1079893,BaTiSe3,-1.487057499406249
mp-1079894,LaGe2Rh,-0.8659681537500008
mp-1079896,Ca2H6Ru,-0.7051805301911114
mp-1079900,Dy(NiB)2,-0.5598766373333334
mp-1079901,Ba2CrMoO6,-2.7036867367499995
mp-1079910,SiTc,-0.5240859262499997
mp-1079914,HfSb,-0.5428217474999997
mp-1079915,PrAu,-0.7937133987499996
mp-1079916,DyIn2Ni,-0.4243846937500004
mp-1079921,HoNiGe3,-0.5678708100000002
mp-1079933,Y2InAu2,-0.8190522203333337
mp-1079936,TbCoGe2,-0.6432062762500008
mp-1079937,Pr3Si2,-0.6103913499999998
mp-1079938,TlPd3,-0.2239991299999992
mp-1079942,LuGa2Pd,-0.7837897099999998
mp-1079944,LuCuAs2,-0.7625566287500005
mp-1079945,SrAs3,-0.5974403754166664
mp-1079949,UAlPt,-0.6871191722222219
mp-1079958,LuSnIr,-0.8590559922222217
mp-1079959,Th(GeIr)2,-0.8293673429999998
mp-1079966,CrNiP,-0.4933710295238087
mp-1079967,Ba(SbPd)2,-0.8015290060000005
mp-1079968,UGaFe,-0.198130717777777
mp-1079974,DySnRh,-0.9110779800000002
mp-1079975,U(CoGe)2,-0.3556994369999998
mp-1079977,CeCdPd,-0.5846785238888891
mp-1079988,La2Al2Ge,-0.6351493010000006
mp-1079992,Zr2PbC,-0.6594524249999996
mp-1079993,ThAgPO,-2.0522216932886908
mp-1079994,Y(NiB)2,-0.557757531
mp-1079997,VPt8,-0.2605380322222225
mp-1079999,Zr2NiP2,-1.2845617174285722
mp-1080001,ZrGa3,-0.4890109537500002
mp-1080017,Cs2NaLaCl6,-2.503677823542207
mp-1080021,Nb2B3,-0.7472921940000006
mp-1080026,Ce(SnPd)2,-0.7271360579999999
mp-1080029,Ba2Mn2Se2OF2,-2.4533377766164275
mp-1080033,SiNiPd,-0.6245189216666671
mp-1080037,Th(SiIr)2,-1.1061907049999988
mp-1080041,Cs2NaBiCl6,-1.964547519042208
mp-1080045,SrHBrO,-2.231105805384167
mp-1080049,Sr(ZnSn)2,-0.3646873973333335
mp-1080051,Zr6Ga2Ni,-0.4109574211111122
mp-1080058,KIO3,-1.37875416435
mp-1080060,LaAlO3,-3.73074494575
mp-1080061,Dy(SiPt)2,-1.0836713439999996
mp-1080073,MnTe,-0.0800661348275859
mp-1080077,UGaPt,-0.6370172144444441
mp-1080080,LaAlO3,-3.73046656075
mp-1080083,PrPOsO,-1.9921627762053564
mp-1080085,PrInCu,-0.3742409083333334
mp-1080089,TaFeB,-0.6206477327777785
mp-1080094,SrHg3,-0.4211143129166667
mp-1080104,Pr(BIr)2,-0.7240505653333329
mp-1080105,CeAsRuO,-2.058467904062499
mp-1080107,UCo,-0.2682135087500015
mp-1080116,SmCuSb2,-0.6524024358333333
mp-1080123,Ba2LaIrO6,-2.71865986925
mp-1080126,LuCuSb2,-0.5096940600000002
mp-1080127,YbCdPb,-0.4085833522222223
mp-1080129,SmSnRh,-0.8842307999999998
mp-1080131,Cu2SiHgTe4,-0.1091489581249995
mp-1080133,SrGa3Pd,-0.6155698313333332
mp-1080135,SrZnAsF,-2.015291806964167
mp-1080147,Ni3Sn,-0.1808790250000003
mp-1080149,Yb(CuS)2,-1.2755766045833332
mp-1080178,GdZnPd,-0.7380312861111109
mp-1080181,Pr2InNi2,-0.4088510910000004
mp-1080183,La(PRh)2,-1.1395077274285712
mp-10802,RbAs,-0.4226598262499998
mp-1080221,KMn16O32,-1.8673611804661805
mp-1080226,CsTlBr3,-1.125463431586207
mp-1080232,CsSrI3,-1.6665939349195402
mp-1080241,Li2Ge(S2O7)3,-1.9967052658888889
mp-1080381,SmB2Ir3,-0.6646221600000004
mp-1080384,DyInCu4,-0.2760459833333334
mp-1080386,PrSiPt,-1.114753395
mp-1080399,ThB2Rh2C,-0.6792258811111118
mp-10804,NaYPO4F,-3.3574681710118446
mp-1080405,DySnGe,-0.634513138333333
mp-1080424,ScAgGe,-0.565059969444444
mp-1080427,TmSnIr,-0.8635674122222233
mp-1080428,NbBr4,-0.8991211569999997
mp-1080438,SrAgTeF,-2.0647254965475006
mp-1080443,YCu,-0.2587274041666658
mp-1080448,AlPt3,-0.6902695962500003
mp-1080449,SmZnPd,-0.7209351472222217
mp-1080451,TbPd,-0.9179483799999996
mp-1080452,KCd4As3,-0.2257176316249998
mp-1080453,NdAsRuO,-2.0208057553125
mp-1080454,DyPdPb,-0.7266143377777783
mp-1080463,HfPOs,-0.8828152639682543
mp-1080464,Ba3(CdAs2)2,-0.846150178888889
mp-1080466,Nb2PdS6,-1.2307703398611112
mp-1080467,KCd4P3,-0.1698577835892853
mp-1080469,HfCuGe2,-0.4083058900000003
mp-1080470,Ba2SmOsO6,-2.833577958083333
mp-1080480,CeSi2Ag,-0.5016364770833333
mp-1080485,NdPt,-1.1414751125000002
mp-1080489,HfGeRu,-0.753052645555556
mp-1080495,ZrGaPt,-0.9664607811111112
mp-1080496,GdInAu,-0.7413062411111105
mp-1080514,SrF3,-3.196440375059167
mp-1080515,Nd(BOs)2,-0.4334298313333334
mp-1080523,Ho3Ni2,-0.3785494900000003
mp-1080524,LaAl5Ni2,-0.6074460981250001
mp-1080525,FeB,-0.3799095166666655
mp-1080526,Zr6Ga2Fe,-0.3685364111111116
mp-1080546,La(GePt)2,-0.9615425269999996
mp-1080552,SrHg3,-0.4257405341666666
mp-1080558,Nd(GeIr)2,-0.7823150859999999
mp-1080559,In(GaAu)2,-0.2450837629999995
mp-1080560,NdAlCu,-0.380160158888889
mp-1080561,CaGa2Ni,-0.5071395399999998
mp-1080568,PrNiSb2,-0.7217994425000009
mp-1080572,NdCoGe2,-0.6617524387499998
mp-1080573,V3PC,-0.7038366047142844
mp-1080575,SrZrO3,-3.665633338083333
mp-1080579,NdCd2Pd,-0.5592204949999999
mp-1080586,Sn4Ir,-0.2111738590000001
mp-1080588,LaCuGe2,-0.6301855462499999
mp-1080590,DyAu3,-0.7190097012499996
mp-1080594,DyInCu,-0.4137568166666664
mp-1080600,YbAl2Pd,-0.7080399716666665
mp-1080603,Fe7Co,-0.022886414374998
mp-1080605,MgGaAu,-0.4387510877777774
mp-1080606,La(SiPt)2,-1.1173656699999994
mp-1080611,CaIn2Ni,-0.3641743975000002
mp-1080612,GdAlCu,-0.4334275133333342
mp-1080614,Cs2Sb2Pt,-0.4775896141724139
mp-1080622,KRhF6,-2.1888404700175004
mp-1080624,YInCu,-0.4267703988888895
mp-1080625,Sr2LiReO6,-2.7594681162499994
mp-1080643,LaFeSi2,-0.6546900325000005
mp-1080646,Y(SiPt)2,-1.0873290816666668
mp-1080650,BaCuSF,-2.30920531357875
mp-1080654,LaPdPb,-0.7715226472222222
mp-1080661,Gd2SnAu2,-0.840792288
mp-1080664,CrB,-0.5288221879166652
mp-1080665,ScPIr,-1.190019986746031
mp-1080672,Th(BRu)2,-0.5849659883333331
mp-1080679,LiTaF6,-3.601105139225833
mp-1080680,YbCdSn,-0.535035582222222
mp-1080689,LuTe3,-0.8288608737500001
mp-1080691,Rb2SnHgTe4,-0.5674534281249999
mp-1080693,Cs2Bi2Pd,-0.3862199541724134
mp-1080702,Ba(CuSb)2,-0.4656674270000003
mp-1080703,PrAlPd,-0.787405187222222
mp-1080708,CeCuGe2,-0.5406664724999999
mp-1080709,NdAu,-0.8082929449999998
mp-1080710,Ho2InAu2,-0.815906743
mp-1080711,N2,0.0
mp-1080713,Er2Ni2Sn,-0.6124793480000001
mp-1080714,Li2AgSn2,-0.3181923203333333
mp-1080715,ScSiRu,-0.9271030100000002
mp-1080722,Nd2CdCu2,-0.2586447859999999
mp-1080723,HfCuGeAs,-0.5040057125000006
mp-1080729,CePRu2C,-0.6468287247142854
mp-1080730,Sr2ZrMnO6,-3.0866939001448506
mp-1080734,Ce(BOs)2,-0.4797954953333331
mp-1080740,PrMgPd,-0.646327100555555
mp-1080747,ScAlCO,-1.8877364315625
mp-1080749,CsFeO2,-1.8615137751077588
mp-1080756,ErAu3,-0.7229776274999997
mp-1080757,Ta2CrB2,-0.7038420823333311
mp-1080760,ZrAlPt,-1.039969268888889
mp-1080768,LuSnPd,-0.9183245855555556
mp-1080769,HfMnGe,-0.5366309043295021
mp-1080771,NaCl7,-0.6945735909775002
mp-1080773,Pr(AsRh)2,-0.931539558
mp-1080775,PrInNi2,-0.3910672112500002
mp-1080785,ThAlRh,-0.9169252855555554
mp-1080787,Sr2GdRuO6,-2.830757671083334
mp-1080794,TbPRu2C,-0.6793240827142867
mp-1080797,CsHg,-0.2161652102155172
mp-1080800,Th(CoAs)2,-0.7853698320000007
mp-1080801,NdLuS3,-2.470983134875001
mp-1080803,USnIr,-0.471782621111111
mp-1080806,TmSnPt,-1.0902154100000006
mp-1080814,Lu2InCu2,-0.3933667079999999
mp-1080817,NbFeB,-0.539333833888888
mp-1080818,Ho2CoGe2,-0.7520969219999998
mp-1080821,BaF3,-3.2166618571425003
mp-1080828,KCuF3,-2.375660497314
mp-1080829,Ti6Ge2B,-0.6237519787037039
mp-1080831,AsPd2,-0.3634517899999999
mp-1080834,Na5As4,-0.3966962850000001
mp-1080835,V2GaC,-0.5189389837499991
mp-1080845,CsMoN2,-0.6088783987977582
mp-1080847,Mg3SbN,-0.687986767476
mp-1080848,KVN2,-0.9402098675649988
mp-1080849,KReN2,-0.3813499922524999
mp-1080850,RbReN2,-0.3801025746275002
mp-10809,AgSnF6,-2.2892258413091664
mp-10810,TiAgF6,-2.8587044150591665
mp-10811,NaSr4(BN2)3,-1.2321696186390465
mp-10814,SrLiBO3,-3.0074058529861105
mp-10816,NdAgAs2,-0.7691323908333327
mp-10824,ZnCu2GeSe4,-0.359457233046875
mp-10834,RbNd2CuS4,-1.9518455050000003
mp-10835,RbSm2CuS4,-1.964929434583334
mp-10837,Na2MgInF7,-3.212992246060303
mp-10838,NaYb(PS3)2,-1.190952435755952
mp-10846,NiAsSe,-0.2903675807812498
mp-10847,NiSbSe,-0.2974022391145834
mp-1084757,LaNiSn2,-0.6623850774999998
mp-1084759,TbSnRh,-0.9090166766666662
mp-1084767,Zr2InN,-1.158221615595001
mp-1084770,K2BiAu,-0.4291989927499999
mp-1084775,ScSnPt,-0.9994875205555552
mp-1084778,CsZn4As3,-0.2994601772413792
mp-1084794,NdCdGa,-0.5262053544444443
mp-10848,AsPdS,-0.5790431468750002
mp-1084805,YH3,-0.7021186222983333
mp-1084808,YbAu,-0.9506828683333332
mp-1084813,NdCuGe2,-0.5818937987500004
mp-1084815,Nd(SiPt)2,-1.102529939
mp-1084823,Sr2CrSbO6,-2.684697698583333
mp-1084826,Nd2Co3,-0.0658125659999996
mp-1084828,La3Al,-0.2013899287500002
mp-1084830,LaGe,-0.8545239099999993
mp-1084838,Y(GePt)2,-0.8631748306666666
mp-1084844,ErSiAg,-0.5944542661111112
mp-1084847,TbTe3,-0.94072258
mp-10849,AsPdSe,-0.3581436241145835
mp-1085,UOs2,-0.0641120499999985
mp-10850,SbTePd,-0.3739882816666669
mp-10852,La(BC)2,-0.4384637753333337
mp-10853,Pr(BC)2,-0.3948354363333323
mp-10854,Tb(BC)2,-0.4478358843333339
mp-10856,Er(BC)2,-0.4417465503333346
mp-10857,Tm(BC)2,-0.4386817030000003
mp-1086,TaC,-0.575939739999999
mp-10860,CeNi2B2C,-0.4817612386111112
mp-10861,Hg,0.0028478066666666
mp-1086652,BaAgSF,-2.300841615662084
mp-1086666,Sr2TaInO6,-3.101212016083333
mp-1086669,NiP2W,-0.4671461392857141
mp-1086673,DyTe3,-0.9248824937499998
mp-1086674,YbCoGe2,-0.5293233554166665
mp-10867,PrPPd,-1.2345384428571424
mp-10868,SmPPd,-1.2511549989682542
mp-1087,SrS,-2.475297229895834
mp-10870,Zr5ZnSb3,-0.7183905850000001
mp-1087215,NaAsF6,-2.7196513377675005
mp-1087218,Pr(NiAs)2,-0.82572318
mp-1087228,Er2NiAs2,-1.2281041339999994
mp-1087235,TbNiGe3,-0.5837688659999998
mp-10873,ScAlAu2,-0.7050427962499999
mp-1087473,LuZnPd,-0.7735612083333336
mp-1087476,K2Mg5Sn3,-0.2094966412666664
mp-1087478,DyNiGe3,-0.5780379080000003
mp-1087480,LuAlAu,-0.7984742933333328
mp-1087483,ThCuPO,-2.175330319955358
mp-1087485,YInPd,-0.8236506199999999
mp-1087494,YbPdPb,-0.7004777955555552
mp-1087495,Tc3B,-0.2656458133333323
mp-1087497,V5Se4,-0.6360898921527772
mp-1087498,Ce(AsRh)2,-0.9315782029999994
mp-1087501,NdGe2Rh,-0.8227078762499991
mp-1087502,HoPd,-0.944824325
mp-1087504,KZn4P3,-0.2961370885892855
mp-1087505,U(FeB3)2,-0.5172488433333342
mp-1087511,UFeAs2,-0.5208141087500007
mp-1087512,TmTe3,-0.8695000270833337
mp-1087513,Tb2MnGa6,-0.528057746628352
mp-1087517,NdZnPd,-0.6962248594444441
mp-1087523,TmAlNi,-0.6273433677777783
mp-1087532,CsLuS2,-2.1338984510452583
mp-1087540,CdCu2SiTe4,-0.1762744956249999
mp-10876,Ca3Al7Cu2,-0.3282149370833333
mp-10877,Ca(Al2Cu)4,-0.262257211923077
mp-1088,YbGa4,-0.4086117673333334
mp-10881,Ce3AlN,-0.8322585874760001
mp-10884,AlFeCo2,-0.3692956800000004
mp-10887,HfAlCu2,-0.3254407774999999
mp-1089,TiIr3,-0.7330346100000007
mp-10890,LiAl3,-0.1016369291666667
mp-10894,MnAlRh2,-0.6967054199137923
mp-10895,Mn2AlV,-0.3181532723275868
mp-10896,Y(MnAl2)4,-0.3411368332272323
mp-10897,PrAl2Ni3,-0.5267898758333333
mp-10898,ScAlNi2,-0.6273659462499994
mp-10901,Al3Pd2,-0.7740163699999997
mp-10904,AlPt,-1.0414113487499996
mp-10905,Al3Pt2,-0.9943236239999996
mp-10909,AlRe2,-0.26289866
mp-10910,Al2Ru,-0.7188399666666664
mp-10911,Sc2Al3Ru,-0.6516311666666658
mp-1091363,K2TcF6,-2.8594598670155555
mp-1091370,LuInAu,-0.7070423066666665
mp-1091384,NbTl3S4,-0.9818030140625008
mp-1091386,Lu2CoGe2,-0.7497974549999995
mp-1091387,CaHg3,-0.3927561975
mp-1091390,Ca(GePt)2,-0.7769953709999996
mp-1091391,BaTl4,-0.2441170940000002
mp-1091394,Ba2NaIO6,-2.22007565175
mp-1091395,ZrGeOs,-0.6200594022222217
mp-1091396,Pr(AlAu)2,-0.7476461270000001
mp-1091398,YSiAg,-0.6119472405555544
mp-10914,K3Cu5O4,-1.1029988255416665
mp-1091415,Ge,0.0081914625000001
mp-10919,Rb2PtC2,-0.0628649869999996
mp-1092,HoHg,-0.4860579199999999
mp-10922,Mg2Co12P7,-0.6256662241269846
mp-1092248,TbInPt2,-0.9548322324999994
mp-1092278,Mn(BMo)2,-0.4115999312643666
mp-1092281,Ti2TlC,-0.5743290637499996
mp-1092291,Sm(GePt)2,-0.9038134676666664
mp-1092296,DyGa2Pd,-0.8010057450000003
mp-10923,Ca2Co12P7,-0.7048697357142855
mp-1092301,La(GaPd)2,-0.8366625769999999
mp-1092318,TmInAu,-0.7240713355555555
mp-1092328,Sc3IrC4,-0.4999004306250008
mp-10924,Mg(Co3P2)2,-0.6352948025108212
mp-10925,Pr2Se2O,-2.5708584181875005
mp-1093,ThGe,-0.7695598349999999
mp-10930,TbSF,-3.385050241438334
mp-10931,HoSF,-3.3700458481050006
mp-10932,ErSF,-3.362979904771667
mp-10933,Nd2TeS2,-2.14233363725
mp-10935,NaErPO4F,-3.3779048387201778
mp-1093991,ZrAsIr,-0.910513120000001
mp-1093999,Zn2Ag,-0.0438287352777777
mp-1094027,TmTe,-1.1981032791666664
mp-1094043,Ti5InS8,-1.6788571882142855
mp-1094052,Sm3AlN,-0.8938915404759996
mp-1094054,Sr2FeCoO6,-2.174881941583333
mp-1094056,Si7Ge,0.0056403456250011
mp-1094063,Sr12Al14O33,-3.41214526713983
mp-1094066,ScAgS2,-1.5505599686458336
mp-1094072,Pr3AlN,-0.7901550974759999
mp-1094085,Nd3SnN,-1.030232356476
mp-1094087,Sr10Fe10O29,-2.357351241896258
mp-1094088,NbCoSn,-0.3273752750000002
mp-1094098,NaGaTe2,-0.59241295125
mp-1094100,Nb4CoS8,-1.4133125319230773
mp-1094101,Nd3PbN,-0.9412293884760004
mp-1094107,Na2Zn2S3,-1.2249054370535717
mp-1094109,Na6MnNi3(SbO6)2,-1.8093225731506315
mp-1094111,Sr5Fe5O14,-2.382328138368056
mp-1094116,MgAl2,-0.0230836694444445
mp-1094122,Mg,0.0
mp-1094132,Lu5Ga3,-0.4979281518749996
mp-1094147,Na4Mn9O18,-1.975876862678598
mp-1094148,Mn2FeGe5,-0.0895621617887929
mp-1094159,Li3Mg,-0.0308395683333333
mp-1094174,LaMg3,-0.1339793837499998
mp-10942,KNaLaNbO5,-3.054348312138889
mp-1094310,SrMg2,-0.0901586794444444
mp-1094591,Li3Mg,-0.0346805258333333
mp-1094598,Li3Mg,-0.0286198583333332
mp-1094599,LiMg5,-0.0428980055555555
mp-1094601,Li2Mg,-0.037826757222222
mp-1094673,LiMg,-0.0595287499999999
mp-1094701,YMg,-0.108806808333334
mp-1094763,MgCd2,-0.1026467544444444
mp-1094804,MgCd2,-0.1008846244444445
mp-1094889,LiMg,-0.0607844899999998
mp-1094909,Mg2Cd,-0.1048801322222221
mp-1094936,Mg2Cd,-0.0959164105555556
mp-1094951,Mg5Cd,-0.0652844177777778
mp-1094998,CaMg,-0.0834674841666665
mp-10950,Sr2Cu(PO4)2,-2.894014558498168
mp-1095029,Dy(BIr)2,-0.7426744873333334
mp-1095043,Sc3OsC4,-0.4348746443750002
mp-1095046,La(GeIr)2,-0.8121621049999994
mp-1095053,ThSnRh,-0.940890903333333
mp-1095057,VCo3,-0.1660591087499998
mp-1095061,NbReSi,-0.5037621522222224
mp-1095071,Ce(GaPd)2,-0.7590808609999996
mp-1095072,Sm(PIr)2,-1.0089818700952378
mp-1095074,Ba2GdMoO6,-3.0730861337500004
mp-1095079,K3AlF6,-3.4344327926139995
mp-1095083,Sm2CdGe2,-0.7401304253333336
mp-1095099,LiPtF6,-2.043433337975833
mp-1095100,U2SnIr2,-0.5296446099999997
mp-1095106,Gd(CuSn)2,-0.3714013890000004
mp-1095110,Ba2SmMoO6,-3.060147231083333
mp-1095111,Pr(CuSn)2,-0.4326942949999995
mp-1095120,PrPdPb,-0.7217490938888886
mp-1095124,TaCo3,-0.233335864999999
mp-1095127,USbRu,-0.3293558783333326
mp-1095128,TiPOs,-0.8314992728571424
mp-1095130,DySiAg,-0.5983137616666667
mp-1095134,LaCoGe2,-0.6801592762500004
mp-1095135,DyGa2Ni,-0.6473017312499998
mp-1095136,La(BOs)2,-0.4539396993333341
mp-1095137,UFeC2,-0.1457030912500005
mp-1095140,Er2CoGe2,-0.7551628020000003
mp-1095141,Sr2MnMoO6,-2.686020698644852
mp-1095144,La2InNi2,-0.4443763969999999
mp-1095145,TiReSi,-0.7372012733333312
mp-1095148,TiFeAs,-0.6736630666666668
mp-1095149,LiLaBi2,-0.750119387916667
mp-1095151,BaCdAsF,-1.9725316427975008
mp-1095152,Lu2InAu2,-0.8048454749999998
mp-1095154,SmMgAg,-0.2670109344444442
mp-1095155,Sr2NiIrO6,-2.0484511643333336
mp-1095158,HfGaCo,-0.554633993888888
mp-1095164,Gd(BRu)2,-0.5374281863333323
mp-1095170,Sr2FeOsO6,-2.3896545915833327
mp-1095172,CsNdS2,-2.127330714795259
mp-1095180,Ca2CdAs2,-0.93389625
mp-1095196,HfGeOs,-0.5938230866666648
mp-1095197,SmCdGa,-0.5312916022222218
mp-10952,Cu2HgGeS4,-0.6155973703125004
mp-1095201,ZrCuGe2,-0.4890075962499995
mp-1095204,Tm2Ni2Sn,-0.6199180963333341
mp-1095213,BaFe2S2O,-1.707055392916666
mp-1095215,K2Mg(CO3)2,-2.2776266997121213
mp-1095218,BaThTe4,-1.2354749216666672
mp-1095223,OF2,-0.5220221628766663
mp-1095229,YNbO4,-3.559034403055556
mp-1095230,CaSeO4,-2.1058787487239585
mp-1095231,Ba3(LiBi)4,-0.7713930151515153
mp-1095234,DyNbO4,-3.579802590833333
mp-1095240,Ca3(GeIr)4,-0.6760928868181821
mp-1095247,ScGeRh,-0.9953394349999994
mp-1095252,SrFe2Se2O,-1.4063934387673604
mp-1095253,ScGePt,-1.0678082941666662
mp-1095255,Ba3ThSe7,-1.637888187855114
mp-1095261,ScCoGe,-0.7309898825
mp-1095263,HoSeF,-3.035957125344584
mp-1095265,LiYbBi,-0.7869663986111112
mp-1095273,BaGdCuTe3,-1.2586701983333335
mp-1095274,LiYbAs,-1.0752796736111112
mp-1095278,BaTbAgTe3,-1.2585307480555556
mp-1095280,SrFe2S2O,-1.703017153194444
mp-1095283,PAuO4,-1.7694342139285706
mp-1095287,ScTlP2S7,-1.0847686340016234
mp-1095289,LiCaAs,-1.0608692147222218
mp-1095291,Li2SnSe3,-0.8331817608940971
mp-1095296,Dy4Te3S4,-1.9411173375000008
mp-10953,Sc2CdS4,-1.9378502646428573
mp-1095305,NdSbAu,-0.9148357658333334
mp-1095307,CeSbAu,-0.8229893949999999
mp-1095312,U2Te2PO,-1.498641137470237
mp-1095320,LuBPt2,-1.00907116875
mp-1095324,U2In8Rh,-0.1253449427272728
mp-1095340,BaTbAgS3,-1.9407673462847228
mp-1095357,BaIn9Ir2,-0.2493637366666667
mp-1095369,Sr3(GaIr)4,-0.555357920909091
mp-1095370,BiPdSe,-0.3758515466145831
mp-1095371,LiYbSb,-0.9355248336111114
mp-1095372,MnBi4S7,-0.7655647459608481
mp-1095378,AsAuO4,-1.1770745441666666
mp-1095403,BaTbCuTe3,-1.242579790833333
mp-1095406,Ba3(LiSb)4,-0.883282015151515
mp-1095419,TaCrP,-0.6355725720238089
mp-1095422,YbBPt2,-0.8910127362500001