material_id,pretty_formula,formation_energy_per_atom
mp-11175,LiZnPS4,-1.0392218732482996
mp-11176,Ca3(SiIr)4,-0.8792254668181815
mp-11178,SrCeN2,-1.3834258666066663
mp-1118,SiNi2,-0.5503114374999996
mp-11181,Cs(MnP)2,-0.4765225808768477
mp-11183,Pr(BO2)3,-3.16899919175
mp-11184,Nd3Sb4Pt7,-0.8648336435714289
mp-11185,Sm3Sb4Pt7,-0.8709183385714283
mp-11189,Li2MgSiO4,-2.964092212083333
mp-1118943,Cs3Re2N5,-0.4272888045693094
mp-11190,VSi2,-0.4858524033333317
mp-11192,TaSi2,-0.4786962477777763
mp-11193,VAuS2,-1.0368078065625
mp-11194,NdMgNi4,-0.3252041038888891
mp-112,Y,0.0031531816666667
mp-11200,LaMg2Ni,-0.2518381204166662
mp-11201,Sc6FeSb2,-0.5801866244444448
mp-11202,Y6FeSb2,-0.5622389100000001
mp-11203,Lu6FeSb2,-0.5549121911111103
mp-11204,Tm6FeSb2,-0.5540988788888899
mp-1120716,CdHg3Te4,-0.2390199750000001
mp-1120721,RbGeBr3,-1.0905466455
mp-1120725,CsPbBr3,-1.308849344586207
mp-1120729,RbGeCl3,-1.6734032804559995
mp-1120730,K3(CuS)4,-0.9099501346818184
mp-1120731,NaVF6,-2.9640202290175
mp-1120733,K2SnS3,-1.255137739229167
mp-1120741,Cs2HfCl6,-2.421036791713563
mp-1120745,NaTiF4,-3.467464071626667
mp-1120755,NaCO3,-1.80313978775
mp-1120756,NaVF3,-3.011860589214
mp-1120763,Cs3VSe4,-1.0396633278960126
mp-1120780,AuCl,-0.50661598163
mp-1120781,Ni3Se4,-0.3074181713392855
mp-1120788,CoCl2,-0.9682457805066668
mp-1120789,K6Sn2S7,-1.310626878491667
mp-1121,GaCo,-0.2818518374999996
mp-11212,LaAsPd,-1.2649900483333336
mp-11214,CaAgSb,-0.6987555402777783
mp-11219,LuB2,-0.6915370688888878
mp-11220,Sc2Al,-0.350947593333333
mp-11224,Sr8Al7,-0.1849478772222222
mp-11225,TbAl,-0.4161751243749991
mp-11227,Al12W,-0.0771211900000002
mp-11228,YAl,-0.418543384166667
mp-11229,YAl,-0.4139873016666664
mp-1123,HgS,-0.4592640015625
mp-11230,Y2Al,-0.3149661613888893
mp-11236,MgZnAg2,-0.1662608012499999
mp-11237,ScAg,-0.2870266891666668
mp-11239,ZrAg,-0.1213196716666669
mp-1124,MgZn2,-0.1308919536111113
mp-11241,DyAu2,-0.8652644499999997
mp-11242,DyPbAu,-0.67109606
mp-11243,ErAu,-0.8998200074999998
mp-11247,Li3Au,-0.41127636
mp-11248,LiAu3,-0.3661670291666663
mp-11249,LuAu,-0.9045241999999992
mp-1125186,U6Fe16Si7,-0.3971515698275856
mp-11252,MnAu2,-0.1107623432183911
mp-11253,NaSnAu,-0.3722052550000002
mp-11256,ScAu,-0.8081003674999998
mp-11262,YbAu4,-0.5544894473333333
mp-11263,Zr3Au,-0.3470560837500001
mp-11265,BaCaSn,-0.6838991950000004
mp-11266,BaCd2,-0.34546613
mp-11267,BaHg2,-0.5057912466666666
mp-11269,BaSn3Pd,-0.6579234360000001
mp-1127,SmPt2,-1.0670958927777778
mp-11270,MnBe2,-0.2504051998850585
mp-11272,Be2Nb3,-0.134875928000001
mp-11273,Be3Nb,-0.235788307916667
mp-11274,BePd,-0.5944082574999996
mp-11275,Be2Re,-0.3807485783333331
mp-11276,BeRh,-0.6207150774999999
mp-11277,ScBe5,-0.1954137633333334
mp-11278,Ta2Be,-0.1575408266666672
mp-11279,TiBe,-0.1400685324999999
mp-1128,SiIr,-0.6994512049999999
mp-11281,Be2V,-0.2186967574999994
mp-11282,Be2W,-0.3035932449999994
mp-11283,ZrBe5,-0.2410931124999997
mp-11284,CaGa2,-0.5210490616666666
mp-11285,Ca3(GaNi)4,-0.4889429031818185
mp-11286,CaHg,-0.5551437225
mp-11287,CaHg2,-0.4490016116666664
mp-11288,Ca3Hg2,-0.4752326759999999
mp-1129,ScIr,-1.0584678225000008
mp-11290,CaSn3,-0.3895027087500002
mp-11293,ZrCdCu2,-0.1517403575000004
mp-11294,DyCd2,-0.3208439366666666
mp-11295,DyCd3,-0.2869428387500004
mp-11296,ErCd2,-0.3045948866666664
mp-11299,Cd2Hg,0.0039124366666666
mp-113,Tc,0.0
mp-11301,HoCd2,-0.3129874999999999
mp-11302,HoCd3,-0.2791581650000001
mp-11305,Li2CdPb,-0.2764023383333334
mp-11306,LuCd3,-0.2416286412499997
mp-11311,TmCd2,-0.2944162344444446
mp-11313,ZrCd3,-0.1161946025000002
mp-11317,CeFe5,-0.0089352874999993
mp-11318,CePt3,-0.9636367412499992
mp-1132,CdO,-1.3807028206250005
mp-11321,Y3TaO7,-3.848426381704547
mp-11322,ZrSi,-0.9332908425
mp-11327,Rb2Se,-1.0499527357812497
mp-11328,P2W,-0.3770963040476189
mp-1133,V5S4,-1.2095321013888891
mp-1133284,Tl3SiF7,-2.774500197120909
mp-1133299,CaV(SiO3)2,-3.14682019025
mp-1133317,Na3Zr2Si2PO12,-3.154069736428572
mp-1133325,Na5Lu(SiO3)4,-3.011346139924242
mp-1133351,Na3Zr2Si2PO12,-3.152311559928572
mp-11338,Sc3Si3Ni2,-0.8791525318749986
mp-11340,Dy(Ni2As)2,-0.6300827171428571
mp-1134064,Be3Fe4Si3TeO12,-2.5793052856521728
mp-11342,GaSe,-0.589040878671875
mp-11345,ZrP,-1.3741032917857154
mp-11347,TbF3,-4.4893644871425
mp-1135,NbPd3,-0.4255695924999996
mp-11350,CaAl9Co2,-0.3787831529166669
mp-11351,CeAlNi,-0.5697368294444445
mp-11352,PrAl5Ni2,-0.590863405625
mp-11356,La3Co2Sn7,-0.585045439583333
mp-11359,Ga2Cu,-0.0755399500000001
mp-1136,Na3As,-0.4208796124999998
mp-11360,ScGaCu2,-0.3809776087499994
mp-11361,MgCuSn,-0.1536500244444442
mp-11363,TbCu5,-0.1889712849999997
mp-11366,ZrZnCu2,-0.221513218750001
mp-11370,ErIn,-0.4217290099999995
mp-11371,ErInPd2,-0.8413930549999993
mp-11373,DyTlPd,-0.6606035944444449
mp-11374,DyTl,-0.3320204549999999
mp-1138,LiF,-3.1804090164283334
mp-11385,YFe5,-0.0432209205555551
mp-11387,HfGa3,-0.3850728574999991
mp-11388,GaIr,-0.3989228299999992
mp-1139,Co3Mo,-0.0443795912499993
mp-11392,TmGa2Pd,-0.7947683495833333
mp-11393,Nb3Ga2,-0.3629826290000011
mp-11396,NdGa2Ni,-0.6234479612500001
mp-11397,Ga3Ni2,-0.4083905219999998
mp-11398,Ga3Ni5,-0.3758569787499999
mp-1140,NdCu5,-0.157985206666666
mp-11400,ScGaNi2,-0.5700966237499996
mp-11401,ScGa2Ni,-0.6463453787499995
mp-11404,PrGa,-0.5791718225000002
mp-11411,ScGa,-0.6021950299999999
mp-11412,ScGa2,-0.5649678283333331
mp-11415,Sm9Ga4,-0.3797731369230769
mp-11416,TaGa3,-0.1690724799999996
mp-11417,TbGa,-0.6275032224999997
mp-11418,TbGa3,-0.5413884774999995
mp-11419,ThGa2,-0.6381848066666667
mp-11420,YGa,-0.6681645816666668
mp-11422,GdHg,-0.5177289849999998
mp-11427,GdPd,-0.8928114249999997
mp-11428,GdPt,-1.229641935
mp-1143,Al2O3,-3.4357283297500003
mp-11430,Ca3Al7Ag2,-0.3109686693055558
mp-11431,CaGa3Ni2,-0.4829877408333332
mp-11433,ErGaCo,-0.4997976708333329
mp-11435,Er(TiGa2)2,-0.5318258214285702
mp-11436,Er(VGa2)2,-0.4047949728571426
mp-11437,Er3Rh,-0.554800561875
mp-11438,Sc(GaFe)6,-0.3203570273076923
mp-1144,ErP,-1.607113209285715
mp-11440,HfGa2,-0.4535052200000002
mp-11441,Hf2Ga3,-0.4952552269999998
mp-11442,HoGaNi,-0.6487218533333335
mp-11444,YGa2Ni,-0.6546995270833333
mp-11449,HfMn2,-0.2549811314367822
mp-1145,TiB2,-1.0555221122222218
mp-11452,HfOs,-0.6993688550000012
mp-11453,HfPd3,-0.8856471293749992
mp-11454,Hf2Pd,-0.5278504633333334
mp-11456,HfPt3,-1.0896294881250004
mp-11457,HfRh,-0.8712925850000008
mp-1146,ThS2,-2.4268503212500008
mp-11460,HfTc,-0.4829743949999994
mp-11462,KHg,-0.24801556025
mp-11463,LaHg2,-0.4814147683333336
mp-11465,Mg5Hg3,-0.2203634627083333
mp-11466,NaHg2,-0.2394049016666665
mp-11467,NdHg,-0.4755286250000003
mp-11468,NdHg2,-0.4297384200000002
mp-11469,PrHg,-0.4743458275000001
mp-1147,Ti3O5,-3.38966553953125
mp-11471,ScHg,-0.4284156174999998
mp-11472,SrHg2,-0.4881932122222222
mp-11473,TlHg,-0.0230488850000001
mp-11474,TlHg3,-0.0369695124999999
mp-11475,TmHg,-0.482347526666667
mp-1147521,CsCoO2,-1.4905417113577597
mp-1147551,KCuTeO6,-1.2505563878333332
mp-1147553,KCuIO6,-1.0331786017222215
mp-1147554,LiLaSO,-2.823487089010417
mp-1147557,BaNiIO6,-1.4950393002777769
mp-1147558,Ba4Mg(BiO4)3,-2.3262412929166665
mp-1147591,Li6Zn3(PS4)4,-1.0979063507512312
mp-1147592,Li6Zn3(PS4)4,-1.0969472716133006
mp-1147593,Li6Zn3(PS4)4,-1.0969810791133003
mp-1147594,Li6Zn3(PS4)4,-1.0970746284236452
mp-1147596,Li6Zn3(PS4)4,-1.097141104802956
mp-11476,HoIr,-0.8460213799999998
mp-1147600,Li6Zn3(PS4)4,-1.097676982130542
mp-1147603,Li6Zn3(PS4)4,-1.0966103472167483
mp-1147604,Li6Zn3(PS4)4,-1.096670167561576
mp-1147605,Li6Zn3(PS4)4,-1.0978505984236455
mp-1147606,Li6Zn3(PS4)4,-1.0966927432512314
mp-1147610,Li6Zn3(PS4)4,-1.0967398062684728
mp-1147613,Li6Zn3(PS4)4,-1.096909047992611
mp-1147614,Li6Zn3(PS4)4,-1.0967350062684724
mp-1147616,Li6Zn3(PS4)4,-1.0968760161822664
mp-1147617,Li6Zn3(PS4)4,-1.0969130872167483
mp-1147618,K6ZnS4,-1.3087008350454548
mp-1147626,K6ZnSe4,-1.0794473874886366
mp-1147627,Li10Zn7(PS4)8,-1.0683742961445286
mp-1147630,Li10Zn7(PS4)8,-1.069566595091897
mp-1147633,LiCu2BiO4,-1.3956963064583323
mp-1147634,Li10Zn7(PS4)8,-1.0688343110568086
mp-1147642,Ba2NbBiO6,-2.84559890675
mp-1147650,KCuH3,-0.0970326357719997
mp-1147653,CaCu3O4,-1.5691325825
mp-1147664,K2Zn3S4,-1.249829564833333
mp-1147666,K2Zn3S4,-1.2464270848333332
mp-1147679,In(Cu3O4)2,-1.1369308113333336
mp-1147681,Li10Zn(PS4)4,-1.2104096303533023
mp-1147684,Li10Zn(PS4)4,-1.210413625353303
mp-1147685,Li10Zn(PS4)4,-1.2105688019662062
mp-1147686,Li10Zn(PS4)4,-1.2102672219662065
mp-1147687,Li10Zn(PS4)4,-1.210525461482335
mp-1147693,Li10Zn(PS4)4,-1.2109977082565284
mp-1147694,Li10Zn(PS4)4,-1.2123596756758834
mp-1147695,Li10Zn(PS4)4,-1.2123810076113677
mp-1147696,Li10Zn(PS4)4,-1.2109470963210447
mp-1147697,Li10Zn(PS4)4,-1.2101036730952386
mp-1147698,Li10Zn(PS4)4,-1.2122010585791094
mp-1147715,BaCuS2,-1.4686908290625005
mp-1147721,Li4Zn(PS4)2,-1.1519130669206357
mp-1147723,Li4Zn(PS4)2,-1.1520850178095234
mp-1147724,Li4Zn(PS4)2,-1.1535680924206355
mp-1147728,Li4Zn(PS4)2,-1.154699857003969
mp-1147735,Li4Zn(PS4)2,-1.152425371587302
mp-1147773,K2ZnS2,-1.32819562345
mp-1147774,Ba2NiRuO6,-2.0403399437499994
mp-1147776,K3VSe4,-0.9528194147968744
mp-1148,Th2Pd,-0.5129425166666669
mp-11481,MoIr,-0.3292146074999991
mp-11482,MoIr3,-0.3415402700000012
mp-11483,TmIr,-0.9173761566666672
mp-11486,Y2(Al3Co)3,-0.5648182804761908
mp-11488,LaTl,-0.4228451925000001
mp-11489,Li3Pd,-0.3062945775000001
mp-11491,LuNi5,-0.3403240266666666
mp-11494,LuPb3,-0.1772795699999996
mp-11495,LuRu,-0.4688357199999995
mp-11496,LuZn,-0.3613636374999998
mp-11497,TbMg2,-0.0690742455555556
mp-11498,MgTl,-0.0294568066666665
mp-1150,URh3,-0.6920671424999991
mp-11501,MnNi3,-0.1119101724137934
mp-11504,MnZn3,-0.0296719486637933
mp-11506,Ni3Mo,-0.0932755299999996
mp-11507,Ni4Mo,-0.0831135739999993
mp-11508,MoP4,-0.3314079428571432
mp-11511,LaAlGe,-0.711938483333333
mp-11512,LiAl2Ir,-0.7362023266666675
mp-11513,NbNi3,-0.2844453225000007
mp-11514,NbPt2,-0.6869240833333331
mp-11517,NbRu3,-0.1328135825000007
mp-1152,TiRh3,-0.6374159974999989
mp-11520,YNiSb,-0.8998432094444446
mp-11521,ScNi,-0.5073054724999997
mp-11522,Ni3Sn,-0.1892856400000004
mp-11525,TmNi,-0.5017855716666677
mp-11526,TmNi5,-0.3398171038888892
mp-11527,Tm2Ni17,-0.2102813858771937
mp-1153,Li2S,-1.5572345521527782
mp-11531,VNi2,-0.2429779200000001
mp-11532,Zn11Ni2,-0.162614856923077
mp-11533,ZrZnNi4,-0.4138751075000009
mp-11534,Np,0.0
mp-11537,NbAlRu2,-0.6469449825000009
mp-11538,TbAlNi,-0.591233004444445
mp-11539,SmAl3Pd2,-0.8582125672222224
mp-1154,Ho4C7,-0.2943407384090903
mp-11541,ZrOs,-0.5202207299999984
mp-11544,Yb2Pb,-0.5491665902777777
mp-11547,YTlPd,-0.6682783088888892
mp-11548,YbTlPd,-0.6640690677777772
mp-11549,VPd2,-0.2824998166666657
mp-11550,Sc2Pt,-0.9766595983333324
mp-11551,Tb2Pt,-0.9220021849999996
mp-11557,ScRe2,-0.3481552366666669
mp-11558,Sc5Re24,-0.2246004005172412
mp-1156,GaSb,-0.1565779474999997
mp-11560,TiSiRu,-0.8807840638888883
mp-11561,TbRh,-0.8432127999999999
mp-11564,TmRh,-0.9766259616666666
mp-11566,ScZn,-0.3817069999999996
mp-11567,ScZn12,-0.1368375180769231
mp-11568,SmTl,-0.3425094616666664
mp-11569,SmTl3,-0.2763643708333334
mp-1157,TaNi2,-0.3333485066666656
mp-11572,TaTc,-0.4974595099999988
mp-11573,TiTc,-0.4967916149999993
mp-11575,YTl,-0.3694727766666661
mp-11576,YbTl,-0.4868361233333336
mp-11578,VZn3,-0.0524799412500001
mp-1158,LuPd3,-0.940870285
mp-11580,TiCrP,-0.9515398950793654
mp-11581,Tm2NiAs2,-1.2171243723333334
mp-11582,LiGaSe2,-0.910515392838542
mp-11583,Zr2SN2,-1.930875203577
mp-11584,Lu8Te,-0.2804043488888881
mp-1159,Zr2Fe,-0.1350189283333331
mp-11593,CeB2Ir3,-0.6725622719444443
mp-11594,PrB2Ir3,-0.6210313169444449
mp-11596,PrBPt3,-0.8496689406666669
mp-11597,NdBPt3,-0.8672519396666665
mp-11601,NaErO2,-3.199771751875
mp-11602,KY2CuS4,-1.9913591496458327
mp-11603,KNd2CuS4,-1.9574924631875
mp-11604,KSm2CuS4,-1.9736055852708327
mp-11605,KTb2CuS4,-1.9919213488125005
mp-11606,KHo2CuS4,-1.9896064250625
mp-11609,Sb(MoS)2,-0.7930968882499997
mp-1161,LaSe,-1.994314073671875
mp-11621,ZnNiSb,-0.2317354433333331
mp-11623,LaInO3,-2.93896702575
mp-11625,KCa(PO3)3,-2.9055628867831627
mp-11628,Tb2Al6Si4Pt,-0.523372228461538
mp-11629,Tb2Al6Si4Au,-0.3939278284615382
mp-1163,UBe13,-0.0583452042857146
mp-11630,Dy2Al6Si4Pt,-0.5186976138461531
mp-11631,Dy2Al6Si4Au,-0.3889643323076922
mp-11634,KSmGeSe4,-1.1364489393869046
mp-11639,Rb2GeS3,-1.278186065729167
mp-1164,ThC,-0.2761611050000017
mp-11641,Ag2SeO4,-0.851821588430059
mp-11643,K2Mg(PSe3)2,-0.7231622732307899
mp-11644,Li2Ca,-0.0092424261111112
mp-11649,Ca3SiO,-1.6194355142500008
mp-11651,Yb3SnO,-1.9183673222500004
mp-11652,Yb3PbO,-1.8391594182500008
mp-11659,BaTi(BO3)2,-3.2329479324166663
mp-11665,Ce2(Zn2Ge)3,-0.3760040509090904
mp-11666,Pr2(Zn2Ge)3,-0.4249868990909094
mp-11667,Nd2(Zn2Ge)3,-0.4219418654545457
mp-11668,Sm2(Zn2Ge)3,-0.4108306042424242
mp-1167,CF4,-2.2063851529520004
mp-11670,BaYSi4N7,-1.4533325692302554
mp-11673,Sc2(SeO4)3,-2.010660560266544
mp-11674,Al2Se3,-0.8400384134062499
mp-11675,NbTe2,-0.4610861711111111
mp-11677,Sr3(SiAs2)2,-0.8304682005555554
mp-1168,HfTe5,-0.4476212949999993
mp-11687,VTe2,-0.3269751755555548
mp-1169,ScCu,-0.2807952775000002
mp-11690,Tc2P3,-0.5339859091428565
mp-11691,Nd2HgO4,-2.943384469999999
mp-11692,Ba3(SiAs2)2,-0.8078091444444451
mp-11693,TePt,-0.3452628449999997
mp-11694,Cs2Pd3Se4,-0.745162787248563
mp-11695,Rb2Pd3S4,-1.021790213055556
mp-11696,As3W2,-0.0813821520000004
mp-11697,TaSb2,-0.1430962966666674
mp-11698,Tb,0.0
mp-117,Sn,0.0
mp-1170,SnS2,-0.8228131687499994
mp-11700,BaCuSb,-0.6939432566666669
mp-11701,YbCuSb,-0.7208766605555557
mp-11703,KSbS2,-1.0704094760625005
mp-11705,Dy2Fe2Si2C,-0.6923338428571425
mp-11706,Ho2HgO4,-3.0692044914285708
mp-1170750,Ca3Si3(MoO6)2,-3.1094143195
mp-11713,SiC,-0.2026765234999999
mp-11714,SiC,-0.2054565237499996
mp-11715,MgSn(BO3)2,-2.7262770977500006
mp-11718,RbF,-2.889002891845
mp-11719,K4ZnP2,-0.3964315105918373
mp-1172,MgRh,-0.4794536566666671
mp-11723,ErNiC2,-0.3449762549999997
mp-11725,CO2,-1.7733201025000005
mp-11726,LaSi4Ni9,-0.5890288975000004
mp-1172828,WO3,-2.1729722290625
mp-1172870,K2Ho4Cu4S9,-1.7356050791644748
mp-1172871,Mn7GeO12,-2.0593452253403086
mp-1172875,Mn2O3,-2.02832689287107
mp-1173088,Ca10TaTi8Al(SiO5)10,-3.47899800603125
mp-1173089,U2AsSe,-0.8743711168359374
mp-1173098,Ba6Ti2Nb10Si8O51,-3.283295345762986
mp-1173263,Sr2MnBiPbO6,-2.300673473086228
mp-1173281,Sr2FeMoO6,-2.6205454702833344
mp-1173282,Sr2FeMoO6,-2.6228126385833344
mp-1173284,Sr2FeMoO6,-2.6230269295
mp-11733,Lu3InN,-1.0921266364759994
mp-1173309,Sm10Sb3Se7,-1.618793175736979
mp-1173341,Pr2SbO2,-2.8497597235
mp-11734,Sr2MgReO6,-2.876802859916667
mp-1173414,Sm6U3O17,-3.855151558894231
mp-1173448,Re3Se2Cl5,-0.8965649540987499
mp-1173467,RbNaMg5(Si2O5)6,-3.1982395198299307
mp-1173526,Nb3NiS6,-1.3715302938750007
mp-1173541,NaMn2Mo2H3O10,-1.9706893413661293
mp-1173546,Nb4Pb3O13,-2.6542721210625
mp-1173581,NaTiPO5,-3.0090146613839286
mp-1173601,Sr10Mg2Fe3(MoO6)5,-2.7342532580166674
mp-1173612,Pr5Te7WCl3O23,-2.3879618525264106
mp-1173614,Nd20Mn19O60,-2.9660297109766502
mp-1173616,Nd5Te7WCl3O23,-2.3928452513725644
mp-1173622,Pr5Te7MoCl3O23,-2.388646449705898
mp-1173624,Nd5Te7MoCl3O23,-2.3935118011161527
mp-1173625,Sr10Mg3Fe2(MoO6)5,-2.790576222683333
mp-1173638,Sr10Cu(RuO5)4,-2.4515822383333337
mp-1173671,Na3PO4,-2.535452136696428
mp-1173681,Na3GdBr6,-1.7139210045000002
mp-1173714,Na4Al3Si3NO14,-2.8824365005952006
mp-1173715,NaCo2H3(SO5)2,-1.8460057160894447
mp-1173717,Na4Al3Si3CNO13,-2.8582617773452
mp-1173723,Na3La5Cl18,-2.671065842256924
mp-1173728,Na2MnCdFe(PO4)3,-2.4821071193164728
mp-1173735,NaCo2H3(SeO5)2,-1.436276048502639
mp-1173753,Na2Ga2Se3,-0.8592237388616074
mp-1173761,Na2CeO3,-2.828150144791666
mp-1173765,Na2TiFe(PO4)3,-2.754091582800751
mp-1173798,Na2Al2Si3(HO3)4,-2.722359681064347
mp-11738,Na3PS3O,-1.5668591598995532
mp-1173803,Na3CaFe4(SiO3)8,-2.8554116476666658
mp-1173826,Na7As11O31,-1.839336188103741
mp-1173829,Na2Ga2Si3(HO3)4,-2.446959496390434
mp-1173861,Na3Mg4InSi8(O11F)2,-3.1188386169553333
mp-1173879,Li2CoO3,-1.8282139145138896
mp-11739,KLaTe2,-1.4926142320000002
mp-1174,MgSc,-0.0401709141666666
mp-11740,KNdTe2,-1.4112335207499995
mp-11742,CsNdTe2,-1.4015888569827584
mp-1174246,Li7Co5O12,-1.807416948611112
mp-11743,LiYGa4,-0.501302903333333
mp-11749,Tm5(SiSb)2,-0.8944182912962957
mp-1175,SrS3,-1.5135903502604169
mp-11750,Ti6Si2B,-0.6567045109259261
mp-11752,Lu7(NiTe)2,-0.667326836363636
mp-11753,Lu7(TePd)2,-0.832399730909091
mp-1175381,Li9Co7O16,-1.80312565546875
mp-11754,Sc6Te2Os,-0.7129734455555558
mp-1175409,Li9Co7O16,-1.8028514614062496
mp-1175419,Li9Co7O16,-1.8123756114062493
mp-11755,Lu6Sb2Mo,-0.5308151511111111
mp-1176,TbTe,-1.3068781750000005
mp-1176346,Na5(WO3)14,-2.1825593938934413
mp-1176347,Na5Fe2P2(CO7)2,-2.306248624785713
mp-1176357,Na5Mn2P2(CO7)2,-2.350747149634928
mp-1176388,Na2FeO2,-1.6483660615000004
mp-11764,HoSnPd,-0.9209649008333336
mp-1176403,N2,8.881784197001252e-16
mp-1176418,Na2BiAsCO7,-1.954305661145834
mp-1176421,MnZn4O5,-1.8300746076865184
mp-1176484,Na2FeO3,-1.7265222185416664
mp-1176488,Mn2HgO4,-1.6247451744614787
mp-1176491,MgSnO3,-2.512073602416666
mp-1176494,MgV2O6,-2.529201487870371
mp-11765,Ti5Se4,-1.060047989930555
mp-1176513,Na3NO3,-1.379469753732857
mp-1176544,Na3Ni2P2(CO7)2,-2.0495233993322994
mp-1176564,LiTmO2,-3.357010658125
mp-1176640,LiMnCrO4,-2.239535944611692
mp-1176672,LiMn3O6,-1.9965574213512185
mp-1176675,LiLuO2,-3.3867347229166658
mp-1176732,LiCuS,-0.9569678765972226
mp-1176778,LiCoPO4,-2.4418218414625863
mp-1176780,LiCoS2,-1.089004465729167
mp-1176793,Li9Mn12Ni3O32,-1.9594463429889653
mp-1176840,Li8Mn5Fe3(BO3)8,-2.4861758252724138
mp-1176859,Li8MnFe7(PO4)12,-2.472355345484284
mp-1176890,Li7Fe8(BO3)8,-2.4135343294326232
mp-1176895,Li8Mn7Sn(PO4)12,-2.504998305006536
mp-1176910,Li7Mn4(P2O7)4,-2.648879427078698
mp-1176939,Li6V3Fe(PO4)6,-2.718598898285714
mp-1176957,Li7Mn4(P2O7)4,-2.648930212716996
mp-1176968,Li7Mn2Fe6(PO4)8,-2.559568151753973
mp-1177028,Li7Mn4(P2O7)4,-2.6497205947382727
mp-1177074,Li7Mn4(P2O7)4,-2.6497556244191234
mp-1177127,Li7Mn4(P2O7)4,-2.647469967397847
mp-11773,Nd3GaO6,-3.46005357425
mp-1177345,Li4MnNi3O8,-1.648340266705115
mp-1177382,Li4MnCo5O12,-1.795079663058266
mp-1177397,Li4Mn3Fe(BO3)4,-2.4993392444518974
mp-1177487,Li47(CoO4)8,-1.9675702544061304
mp-11775,RbUO3,-3.31373101625
mp-1177503,Li4Cr3FeO8,-2.332691261041667
mp-1177528,Li3Ti7O14,-3.2797600932291666
mp-1177545,Li3VFeP2(O4F)2,-2.8899687461484045
mp-1177695,Li3CuS2,-1.264466956041667
mp-1177747,Li32Mn13Cr3O48,-2.2093541209513603
mp-1177765,Li2VFeP2(HO5)2,-2.419481013900899
mp-1177766,Li2VFeP2(HO5)2,-2.421187289734233
mp-1177767,Li2VFeP2(HO5)2,-2.421080914456456
mp-1177768,Li2VFeP2(HO5)2,-2.419291546400899
mp-1177777,Li2VFeP2(HO5)2,-2.4212009208453447
mp-1177778,Li2VFe(P2O7)2,-2.662214804929653
mp-1177780,Li2VFe(P2O7)2,-2.6554913450054114
mp-1177781,Li2VFe(P2O7)2,-2.660110272505412
mp-1177789,Li32Mn13Cr3O48,-2.2093998125138605
mp-1177857,Li2Ti2Sb2O,-1.248063720654761
mp-1177877,Li2MnVP2(O4F)2,-2.77270491927946
mp-1177897,Li2MnFe(BO3)2,-2.474820414842931
mp-1177916,Li2MnCr3O8,-2.26587339581775
mp-1177928,Li2MgCo3O8,-1.7460959658333326
mp-1177950,Li2FeCuO4,-1.7558182247916667
mp-1178030,Li2Cr3SbO8,-2.3335209280952376
mp-1178037,Li2CoNi3O8,-1.2370895441666667
mp-1178042,Li2CoNi3O8,-1.2425002084523808
mp-1178085,Li11Fe5(OF11)2,-2.931527466050333
mp-1178090,Li12Mn7V(PO4)12,-2.597125205089541
mp-1178101,Li10Sc9Fe(SiO3)20,-3.298455296466667
mp-1178111,Li10Co3Ni7O20,-1.534470138666667
mp-1178133,KSmO2,-3.0195864172083327
mp-1178135,KLuO2,-3.193398091375
mp-1178141,KDyO2,-3.119192936375
mp-1178146,K2TlPCO7,-2.1453983198601203
mp-1178150,KCu2H2(SO5)2,-1.6795693040582345
mp-1178160,HoBrO,-3.1837564837500008
mp-1178161,HoCuO2,-2.7670158818749995
mp-1178173,Ho2TeO2,-3.2570184445000003
mp-1178175,Ho2Pb2O7,-2.5588544789772736
mp-1178210,FeOF,-2.284486754146668
mp-1178212,FeSnO3,-1.9669897927499995
mp-1178215,FeOF,-2.28809124498
mp-1178283,Gd4Ga2O9,-3.388731453416665