material_id,pretty_formula,formation_energy_per_atom
mp-1229201,Ag6HgNO11,-0.5706271540068414
mp-1229203,Ba10PrY4(CuO2)20,-2.0582407409111108
mp-1229208,Cs2Bi4Se7,-0.6472409567129478
mp-1229215,Al11O18,-3.3618012887068964
mp-1229218,Ag6Hg(P10I)2,-0.0560572607389168
mp-1229219,Ag3Te32Au13,-0.0798361056249999
mp-1229222,Ag10Te4BrCl,-0.1971211041620835
mp-1229229,Ba4U8As2O33,-3.386387141409574
mp-1229240,Ca3Ti3Si2GeO15,-3.3386898238020826
mp-1229248,Ca65Ga24Sn19,-0.5691629495833334
mp-1229249,Al79(Fe13Si9)2,-0.3146935801626012
mp-1229253,CaCe4Si3O13,-3.641692501964286
mp-1229254,B3Pb10Br3O13,-1.815648465560345
mp-1229259,Ba6Gd(ReO6)3,-2.8880751724107148
mp-1229265,Ba3Ga2B10H4O23,-2.7297872772991267
mp-1229266,Ba12SrCa3(Ru2O9)4,-2.474167877111112
mp-1229271,Ba4Sr2Gd2Co4O15,-2.6275009347067906
mp-1229288,Ce15Ni32,-0.3808758264893626
mp-1229290,CsSc3H6(Se3O10)2,-1.9349280387837096
mp-1229298,CaCd6,-0.2031357014285714
mp-1229300,Ca3La32(OsI12)5,-1.37540964945
mp-1229301,Ca4Er2(Sn5Pt3)3,-0.7606586214166658
mp-1229308,CsIn3H6(Se3O10)2,-1.5104841340614878
mp-1229314,CuAg64Hg3(As4S15)4,-0.3668529679918981
mp-1229316,Ca33In4P28Pb3O112,-3.16363219225
mp-1229321,CsMg(PO3)3,-2.8197785683853813
mp-1229324,Ba16Zn9Ge80Pd3,-0.3129195521759261
mp-1229333,Ba20Ga5Ru7O44,-2.519655134013158
mp-1229338,Ba13Ca2Re9(ClO15)3,-2.790591092375417
mp-12295,Sr3La2(BO3)4,-3.382195264444444
mp-123,Nd,0.0
mp-12304,Sc11Ir4,-0.6948897390000004
mp-12305,Sc11Os4,-0.3707607923333332
mp-12306,BaCdSnS4,-1.3831687989285717
mp-12307,Tl2Ge2S5,-0.7746947220138891
mp-12309,Cs2NaAl3F12,-3.676925221396782
mp-1231,Cr3Ga,-0.0418167337499992
mp-12315,DyBO3,-3.535497536416667
mp-12317,SrCN2,-1.050013810356666
mp-1232083,Dy2MgSe4,-1.6783834246726193
mp-1232129,Er2MgS4,-2.2573149786904767
mp-1232170,Gd2MgS4,-2.30761769154762
mp-12322,RbGd2CuS4,-1.9853535325
mp-1232207,Mg(InS2)2,-1.1765299719047615
mp-1232268,Cr2AgS4,-0.8903345051190479
mp-1232279,Tm2MgS4,-2.2611044975
mp-1232280,SmS2,-2.1789704165277786
mp-1232292,Mg(AlGe)2,-0.0855736166666666
mp-1232302,RbCuCl3,-1.4716092764560005
mp-1232308,K2Zn3Se4,-0.8987578800416666
mp-1232317,K2ZnSe2,-1.0429170921375
mp-1232332,ZnCu2SiSe4,-0.4017888111718743
mp-1232339,LiC12,-0.0032470832051289
mp-1232352,Dy2CrFeO6,-3.104184139249999
mp-1232369,MgCdTe2,-0.6687609220833335
mp-1232372,ScBC,-0.5954170127777777
mp-1232374,LaSiP3,-0.7233174721428568
mp-1232397,ZnCu2SiSe4,-0.3964834861718751
mp-1232408,Cs3In3(PO4)4,-2.5538423239645693
mp-1232409,Nb4SiTe4,-0.6294272544444447
mp-1232410,Dy6Al43Mo4,-0.3184677148113214
mp-1232420,LiMg2Ir,-0.3565514333333333
mp-1232423,Zr2CuTc,-0.2698307675000002
mp-1233,Cu6Sn5,-0.0209713913636365
mp-12337,NaLa2OsO6,-2.82386452775
mp-1234,LuAl2,-0.48230172
mp-12341,CsPrZnTe3,-1.102081782988506
mp-12342,CsNdZnTe3,-1.1025860279885062
mp-12343,CsSmZnTe3,-1.102508597710728
mp-1235,TiIr,-0.8578337400000002
mp-1235059,LiO8,-0.4055482285185184
mp-12351,PrTe3,-1.00951746375
mp-12355,Sr2YTaO6,-3.6019460284166653
mp-1235796,LiO8,-0.4001015496296294
mp-1235877,LiO8,-0.3979868518518519
mp-1236,NdAg,-0.2553790466666665
mp-12362,AgHg3SbO6,-1.0168039941666662
mp-12364,BaCu2SnSe4,-0.7417700436718748
mp-12365,KThCuS3,-1.803288980395834
mp-12368,SbS2NF6,-1.981907567077
mp-1236840,DySbO4,-2.878709051249999
mp-1236862,TbSbO4,-2.8720807645833326
mp-1236984,NaMg2(SO4)3,-2.3517964661689814
mp-1237008,ErSbO4,-2.8814121795833327
mp-1237084,YbSbO4,-2.343496979444444
mp-1237229,ReO3,-2.140997658437501
mp-1237257,LuSbO4,-2.9016297849999995
mp-1237277,Ca(BH4)2,-0.4574480100569689
mp-1237296,KDyH2S2O9,-2.4130527545160003
mp-1237522,BiSb3(PO4)6,-2.36549449717437
mp-12376,KYbSiS4,-1.5914760174523812
mp-12378,LaSnRh,-0.904089450555556
mp-12381,PrSnRh,-0.8491552494444434
mp-1238119,Be2Co(NF7)2,-1.794615446653684
mp-12382,ErSi2Ni,-0.8248415562499991
mp-1238219,HoSbO4,-2.8820753325
mp-1238251,TmSbO4,-2.8994918051388887
mp-12383,Sc2Te3,-1.2243416454999996
mp-12384,NaEr(PS3)2,-1.3030948130892852
mp-1238445,BeH8(NF2)2,-1.6513592532319998
mp-1238496,Al2H18SO15,-1.7560749865148608
mp-12385,Ba2YTaO6,-3.5818271850833328
mp-12386,ErSi3Ni,-0.683136360999999
mp-1238685,GaHg3AsSCl4,-0.9735855991165
mp-12387,YbAsO4,-2.2902856361111112
mp-1238725,Zn5B3Ir7,-0.2813994063333335
mp-1238754,CsHCO3,-1.9049734800501728
mp-1238774,NaVPO4F,-2.8053018834076786
mp-1238791,Cr2CuS4,-0.8761155517857152
mp-1238793,Cs2HfBr6,-1.6931112862068964
mp-1238795,Na(CrS2)2,-1.1671415867857138
mp-12388,Er3Al3NiGe2,-0.7417424744444447
mp-1238804,Cs4PbI6,-1.3267135660658305
mp-1238811,CsPb2Br5,-1.168791218491379
mp-1238823,Cs(CrS2)2,-1.21204946434729
mp-1238828,TiCrCuS4,-1.2137801475
mp-1238875,TiCrAgS4,-1.1952175094047612
mp-1238894,K(CrS2)2,-1.1962954679285704
mp-1239,Sb3Ir,-0.3452272693749991
mp-1239157,NbCr3(CuS4)2,-1.0634514146428569
mp-1239209,TaCr3(AgS4)2,-1.010288524404761
mp-1239219,TaCr3(CuS4)2,-1.0867001210714289
mp-1239253,NbCr3(AgS4)2,-0.986962097976192
mp-1239264,NbCr3(AgS4)2,-0.9817082958333349
mp-1239266,HfCrAgS4,-1.323483180119048
mp-1239267,NbCr3(AgS4)2,-0.9856842861904777
mp-1239324,TiMo(PO4)3,-2.742008934159664
mp-1239330,CaBi2O5,-1.98734453953125
mp-1239371,CaFeBiO5,-2.01168883921875
mp-1239394,TiSb(PO4)3,-2.687735140336133
mp-1239442,CaTiCr(PO4)3,-2.990652227539682
mp-12398,Mg(CoGe)6,-0.2330739025641019
mp-124,Ag,0.0035822166666665
mp-1240,HoS,-2.3023629415625004
mp-12403,LiBF4,-3.2734930021822226
mp-12406,US3,-1.6038917610937506
mp-1241,BaAg2,-0.2951331855555554
mp-12410,Ba2TbIrO6,-2.7799534567500004
mp-12414,K(USe3)2,-1.089062217451389
mp-12417,Ba2CaReO6,-2.92581939675
mp-12418,SrCaGe,-0.6128348888888885
mp-12427,Sr2TaGaO6,-3.186978257083333
mp-12431,BaBeF4,-3.949997948710001
mp-12434,Ho2InGe2,-0.692226479
mp-12436,Rb2Mn2(SO4)3,-2.263536799110806
mp-1244,SrGe2,-0.4859472522222218
mp-12442,KAuF6,-1.8451584375175
mp-12444,SrCuSF,-2.3512890564954163
mp-1244526,TiP3WO12,-2.7689382062184875
mp-1244626,TiZnMo(PO4)3,-2.6629836155952376
mp-1244648,MgTiMo(PO4)3,-2.843766045224868
mp-1244678,CaTiV(PO4)3,-3.026732431706348
mp-1244685,CaTiMn(PO4)3,-2.9287403086849704
mp-1244721,CaTiMo(PO4)3,-2.9408544911507937
mp-12448,LiSm2OsO6,-2.8522744940833333
mp-1244815,TaTi(PO4)3,-3.048786532394958
mp-12449,LiPr2OsO6,-2.7809022579166665
mp-1245,Sr2N,-0.6742694052377777
mp-12450,LiNd2OsO6,-2.7748780599166665
mp-12451,LiLa2OsO6,-2.886260891916667
mp-12453,HoCuS2,-1.7043504071875013
mp-12454,ErCuS2,-1.7041996640625
mp-1245429,MgZrN2,-1.5249647870233325
mp-1245445,Ca3Mn3N5,-0.8823326950786826
mp-1245450,Ca8(MnN3)3,-1.0070084176442762
mp-12455,TmCuS2,-1.7033638592708344
mp-1245502,Li2TiN2,-1.1932427436186657
mp-1245510,Mg3MoN4,-0.999437998065
mp-1245535,CdGeN2,-0.1609861636899996
mp-1245574,Ba2RuN2,-0.5120313289519999
mp-1245625,Mg(ZnN)2,-0.321870981618666
mp-1245674,ZnMoN2,-0.4584988999400003
mp-1245698,ZnCrN2,-0.406098123065
mp-12457,LuCuS2,-1.6958080409375
mp-1245742,Sr11(CN5)2,-0.8167985229188403
mp-1245745,MgTiN2,-1.5044431145233323
mp-1245798,LiFeN,-0.4639906555155555
mp-1245896,NaFeN,-0.2050946691266659
mp-12459,Ag3PS4,-0.5113273813839294
mp-1245965,Ba3ReN3,-0.7944382038771433
mp-1245967,Zn3WN4,-0.4453196480650003
mp-1245993,Sr3RhN3,-0.627372977448571
mp-1246024,Sr7HfN6,-0.9459781973890478
mp-1246093,NaCaLaF6,-4.082566713571112
mp-1246105,Ca7SnN6,-0.8779040810199997
mp-1246133,MgCrN2,-0.8104487851483331
mp-1246207,Ca4CrN4,-1.0587292199466662
mp-1246243,Ca8Mn3N8,-0.984925656737132
mp-1246246,Ca5(CuN2)2,-0.8040207915472728
mp-1246254,Ba8(MnN3)3,-0.8120300898942752
mp-12463,Ni(TePd)2,-0.3205470650000002
mp-1246385,K2MnN2,-0.3679175625830346
mp-12464,Co(PdSe)2,-0.2795558149375005
mp-1246430,Zn3MoN4,-0.3767642543149998
mp-1246483,Li6ReN4,-0.7322569776836357
mp-12465,Co(TePd)2,-0.2984510220000004
mp-1246504,Ca4OsN4,-0.7953723660577773
mp-1246515,Ca6Te3N2,-1.395091679069091
mp-12466,Fe(PdSe)2,-0.2629633189374999
mp-1246649,Sr3Fe3N5,-0.6171249797181805
mp-12467,Ca5Sb3,-0.9894123862499996
mp-1246715,Ba2ReN3,-0.8075436678566655
mp-1246731,Sr3CoN3,-0.6783056895914287
mp-1246735,Sr2CoN2,-0.6438600466186664
mp-1246788,Mg2NbN3,-1.181415120634444
mp-1246834,LiCoN,-0.3873397180155547
mp-1246856,Ca3Fe3N5,-0.7311691888090905
mp-12469,LaCd2Pd,-0.6007663399999998
mp-1246909,Y4S3N2,-2.239387280829815
mp-1246929,Zr4BN3,-1.5963502631841653
mp-1247,Sb2Ir,-0.3809891641666662
mp-1247040,Sr8Mn3N8,-0.8570932574388868
mp-1247154,MgMnN2,-0.7515562819371269
mp-1247251,Ba2MoN3,-0.9747353316066651
mp-1247259,Ca3RhN3,-0.7587937731628571
mp-1247428,Ca3ReN3,-0.9193700024485706
mp-1247440,Ca5VN5,-1.255119116990909
mp-1247465,Ba3Fe3N5,-0.5638335538090913
mp-1247728,LiV2FeO7,-2.2825611018560608
mp-1247744,BaNa,-0.0207893541666663
mp-1247754,Ca3UN4,-1.4739003068149996
mp-1247866,Ag2B8O13,-2.5112930146557977
mp-12480,ScPPt,-1.2416491528571427
mp-12481,LaPPt,-1.3901409278571428
mp-1248567,AlVF5,-3.4932023458500003
mp-12487,CsDyCdTe3,-1.0826420113218391
mp-12488,CsErCdTe3,-1.0700517529885054
mp-1249,MgF2,-3.8498275352377775
mp-12490,CsHoCdTe3,-1.076422041321839
mp-12491,CsLaCdTe3,-1.1643082529885056
mp-12492,CsLuCdTe3,-1.0458362063218392
mp-12494,CsPrCdTe3,-1.105844578821839
mp-12495,CsTbCdTe3,-1.0881474771551722
mp-12496,CsTmCdTe3,-1.0616794343773943
mp-12497,CsSmCdTe3,-1.0990721643773949
mp-1250,Lu2In,-0.3275777649999997
mp-1250007,SiSe2,-0.4440182628124998
mp-12504,CeZnPt,-0.867478480833333
mp-12505,LuAgSn,-0.5272173044444445
mp-1250639,SiO2,-3.268784673638888
mp-12509,YZnPO,-2.0355205345386915
mp-12510,LaSnPd,-0.9509881494444444
mp-12515,LaZnSbO,-1.9374301165625
mp-1251539,RbAl(H2N)4,-0.6923727211414287
mp-12516,NdZnSbO,-1.8300856815625
mp-1251643,Ca2AlVO5,-3.182719404583333
mp-1251981,MnAlF5,-3.4972351873664524
mp-12520,SrNi2Ge,-0.4206017791666667
mp-1252068,KAl11O17,-3.389685680318966
mp-12521,SrNi3Ge2,-0.4478814519444445
mp-12527,Ti2Te2P,-0.914742013714286
mp-1253,BaSe,-2.0475837711718747
mp-12531,Sn4As3,-0.1006187199999994
mp-12532,KAg2PS4,-0.8077453800922623
mp-12533,La2Hf2O7,-4.0519113112500005
mp-12535,K2ZnTe2,-0.8754095702000001
mp-12537,Ti2GaC,-0.7593116624999992
mp-12540,Zr2Mo(PO6)2,-3.0295493623319327
mp-12543,Dy3Pd2,-0.7343805059999994
mp-12544,Ho3Pd2,-0.7491723200000002
mp-12545,Er3Pd2,-0.76444398
mp-12546,TiCu3,-0.0933597862499997
mp-12549,BaAl9Ni2,-0.3611211000000001
mp-12550,AlCuPt2,-0.6977324649999996
mp-1255268,CeBeSiHO5,-3.1054314941522216
mp-12553,PrAl3,-0.4380108874999999
mp-1255651,CrSiH12(OF)6,-1.9695844139646144
mp-12557,SrCuAs,-0.8058634005555554
mp-12558,LiMgAs,-0.71816595
mp-1256,HoGa2,-0.6267864166666666
mp-12561,TaAs2,-0.4684583516666668
mp-12565,MnAu4,-0.0776116099310343
mp-1256602,SiH14(O2F3)2,-1.6958684597128002
mp-12569,PrB4,-0.5431946341666667
mp-12570,ThB12,-0.2534672530769221
mp-12571,HfBeSi,-0.6552258366666663
mp-12574,Dy2C,-0.2735422800000009
mp-1257498,Ca2AlNiO5,-2.6903711745833334
mp-12580,Li2CdSn,-0.3311404133333333
mp-1258196,SiO2,-3.271318271617647
mp-12584,Th2CrN3,-1.5407635478566668
mp-12585,CrRh3,-0.1278866324999983
mp-1259020,Na17Zr12Si11P7O72,-3.155013383109244
mp-12593,ScIr3,-0.6210961787499993
mp-12595,MoRh,-0.1969831549999998
mp-12599,PrTl,-0.3944156875
mp-126,Pt,0.0
mp-1260,SrPd5,-0.3767881861111111
mp-12602,PrZn5,-0.3051840116666664
mp-12607,PrPt,-1.1065713025
mp-12608,CuPt7,-0.0438754812499997
mp-12612,Ba3Ag2,-0.2289911913333332
mp-1261261,YbAlF5,-4.154161292159524
mp-12613,LaNiSn,-0.6392411583333342
mp-12614,Ca2Cu,-0.115366475
mp-12615,TbBe13,-0.1852402292857147
mp-12620,NdSeF,-3.0381562395112494
mp-12622,SrPdF4,-2.886258403571111
mp-12623,BaPdF4,-2.873229644126667
mp-12625,U2TeO2,-2.510839108500001
mp-12626,K2SrBe2F8,-3.615672324014359
mp-12627,Nb3S4,-1.4790869303571432
mp-1263,URu3,-0.3270581875000005
mp-12630,MgSeO4,-1.8830176001128465
mp-12631,SrTcO3,-2.4626036060833334
mp-12635,TiAu4,-0.2784121779999999
mp-12636,PRu,-0.562630419285715
mp-1264,CdAu3,-0.13334921
mp-12640,Ba2DyNbO6,-3.46892126075
mp-12641,Ba2HoNbO6,-3.4794416197500007
mp-12642,Ba2TmNbO6,-3.502344185083333
mp-12644,Ba2LuNbO6,-3.5155180007500006
mp-12645,LiHoO2,-3.3108265435416664
mp-12647,TbNbO4,-3.577755066666666
mp-12648,Ti2Be17,-0.1986568818421059
mp-1265,MgO,-3.0624300272916667
mp-12651,MgPt,-0.7133648154166665
mp-12657,HfAl2,-0.4413206708333336
mp-12659,Mn2Nb,-0.1425723731034492
mp-1265911,Na10Zr6Si7(PO18)2,-3.142112436510538
mp-1266,Na2Se,-1.0687021607812504
mp-12662,Re24Mo5,-0.0138097934482743
mp-12668,Tb2SO2,-3.615529563125001
mp-12669,Dy2SO2,-3.627399289125
mp-12670,Ho2SO2,-3.637292465124999
mp-12671,Er2SO2,-3.646613623125
mp-12673,Lu2SO2,-3.667786855124999
mp-12678,TaMn2,-0.2237620989367824
mp-12684,LaAl,-0.4115069412499998
mp-12689,Er2InPd2,-0.8846700509999998
mp-1269,SmS,-2.3550062182291667
mp-12691,Lu2InPd2,-0.8899451889999994
mp-12693,Mg2Rh,-0.4319227188888887
mp-12696,YMgPd,-0.6981214788888886
mp-12697,Sc(MnSn)6,-0.1374410286870029
mp-12699,Ca3Au4,-0.7780942699999999
mp-127,Na,0.0024969250000002
mp-1270,Dy2S3,-2.466397675375
mp-12700,NbPt3,-0.6445364881249995
mp-12701,NdSn2,-0.6496010600000002
mp-12703,PrZnNi,-0.3654026688888889
mp-12704,TbGaPd,-0.8914563774999996
mp-12710,PrZnPd,-0.680537442222222
mp-12712,Zr3Pd4,-0.6966619000000003
mp-1271278,Zn3SbN3,-0.0577834488771427
mp-1271282,CoF3,-2.2396802952675
mp-12716,LiTlPd2,-0.4085119266666659
mp-1272139,SnBr2,-0.7852685100000002
mp-12722,TbAlPd,-0.8768166024999999
mp-12723,CaAu,-0.8136717824999997
mp-1272313,Li2NiO2F,-2.000270502003889
mp-1272324,Ta2CrO6,-3.0563357772222224
mp-1272351,Ba3Cr2O8,-2.640125333846155
mp-1272384,Co2PO5,-2.0193329368526785
mp-1272386,Mn(HO)2,-1.628231249071035
mp-12724,SrZn,-0.2089647970833332
mp-1272688,Ni(PtO2)3,-0.9548229354999996
mp-1272719,Sr2TaMnO6,-3.1142908531448503
mp-1272749,CoO2,-1.1630538508333323
mp-1272804,LiMn2O4,-2.080606357556717
mp-12729,Ba2TmRuO6,-2.886474623083333
mp-1272971,Sr2ZrVO6,-3.2891068123333334
mp-12730,Ba2YbRuO6,-2.6583882284166664
mp-1273081,CaLa2CoO6,-2.965721071249999
mp-1273130,Mg3FeO4,-2.726463060625
mp-12732,Dy3(CuSi)4,-0.6375211754545453
mp-1273212,Fe(HO)2,-1.5239758624480004
mp-12734,NdAl3Pd2,-0.8519966566666669
mp-12735,KAg2,-0.014975029888889
mp-1273504,SrLaCoO4,-2.80801387702381
mp-12736,TbB2Rh2C,-0.6011088744444445
mp-1273649,FePH6NO5,-1.6144820499229593
mp-12737,YB2Rh2C,-0.5949752033333328
mp-12741,MgPd2,-0.6101625769444444
mp-1274143,Sr2FeWO6,-2.708360145083334
mp-12742,MgPd3,-0.4995574508333327
mp-12743,CrTe4Au,-0.145504488333333
mp-1274308,Sr2CoWO6,-2.632439090083332
mp-1274387,La2ZnCoO6,-2.6891183347500003
mp-1274489,Sr2NbCoO6,-2.809188509083333
mp-12746,Ce2Ga10Pd,-0.4654559684615379
mp-1274783,SrLaCoO4,-2.8103221580952384
mp-1275,SiMo3,-0.3150000874999996
mp-1275124,Na2FeO3,-1.7262993347916666
mp-1275198,Nb2Co4O9,-2.1749164210833327
mp-12752,Zr4Al3,-0.4591841657142857
mp-1275240,Ba2MnNbO6,-2.9733294588115173
mp-12754,ThPt,-1.2149895875
mp-1275487,Ca2FeWO6,-2.7219871727500005
mp-12755,ThRh,-0.9680360525000004
mp-1275839,CoBi6(SO8)2,-1.8476700313499992
mp-12759,Zn2CuAu,-0.1559684550000004
mp-1275946,V3O5,-2.525736648281251
mp-12760,Zr6Al2Co,-0.3428325383333338
mp-12761,BeAu2,-0.135768595
mp-12762,PrB6,-0.483238626428571
mp-1276278,Sr2CoO4,-2.394908352261905
mp-1276507,Nb2Co4O9,-2.1751502634166657
mp-1276666,SrLaCoO4,-2.810311088095239
mp-1276755,Sr2FeOsO6,-2.3828802010833328
mp-1277156,La2ZnCoO6,-2.6807828895
mp-1277164,Sr3CoRuO6,-2.3982389547727263
mp-1277255,CaFe(GeO3)2,-2.4001719210000005
mp-12774,ThIr,-1.0258815075000012
mp-1277418,YFeO3,-2.935095426416665
mp-12775,ThRu,-0.536155087500001
mp-1277667,Mg2FeWO6,-2.4904814794166668
mp-12778,VOs,-0.2336943399999995
mp-12779,CdTe,-0.4606972275000003
mp-1277926,La2MgFeO6,-3.061852008583333
mp-1278,Zr2Si,-0.7772373333333332
mp-12780,Sr(GaAu)2,-0.5894551443333327
mp-12781,ScAl2Ni,-0.6568964787499993
mp-1278131,Rb2CoO3,-1.5108376997916668
mp-1278154,Sr2FeWO6,-2.708389330083334
mp-12782,YbAl2Ni,-0.5266562041666667
mp-12783,Sr(CdGa)2,-0.340744961333333
mp-1278392,NaNiO2,-1.2436642143750003
mp-12784,YbAlAu,-0.749934303055556
mp-1278469,Sr2NbCoO6,-2.8111192538333336
mp-1278696,TiFeO3,-2.8345227837499984
mp-12788,Nd3Au4,-0.80872541
mp-12789,Yb(Al5Fe)2,-0.3050767366666666
mp-1279,TaN,-1.3640937545233338
mp-1279034,SrLa(FeO3)2,-2.635616740916665
mp-1279043,Ba2MnNbO6,-2.973047940061518
mp-1279062,Fe(BO2)2,-2.533792553809523
mp-12791,SmCuSn,-0.6050741127777771
mp-1279343,CoNiO3,-1.1223453197499993
mp-12797,BaBe2Si2O7,-3.315901726562501
mp-1279742,FeO,-1.7280292406250002
mp-12798,Ni3Pt,-0.0687584475000004
mp-1279869,Ba2FeMoO6,-2.59012524275
mp-1280,ErTe,-1.2060138150000004
mp-1280011,Ba2FeWO6,-2.68807423875
mp-12802,AlCu3,-0.1894391937500001
mp-12803,BaEr2F8,-4.441525934501818
mp-12804,SmAlSi,-0.6515977327777774
mp-1280405,LiNi3O4,-1.2177454533333345
mp-1280510,Li2Ni3TeO8,-1.4575637973809528
mp-12806,Cu2GeTe3,-0.0982013699999999
mp-12807,KAlO2,-2.91833573575
mp-1280709,LiV3Zn2O8,-2.3252521647619053
mp-1280748,Y(FeO2)2,-2.5915214804761897
mp-1281224,MnO,-1.9907135796825857
mp-12813,YbIn2Rh,-0.5987158591666666
mp-12814,Ba3SbN,-0.8921768544759999
mp-12815,Na2LiAu3,-0.4383286786111113
mp-1281596,VOF2,-2.8647105390325
mp-1281606,Ba3Cr2O8,-2.640610818846155
mp-12817,Tb(Zn10Fe)2,-0.1345637526086955
mp-1281818,Sr2MnNbO6,-3.0013071573948507
mp-1282190,Sr2VMoO6,-2.7961122885833327
mp-12826,Sb8Te3,-0.0654951345454545
mp-1282683,FePH6NO5,-1.6116533459943878
mp-1282714,AlV2O4,-2.76097498892857
mp-1282726,V2PO5,-2.6070517331026783
mp-12829,LiCaGaF6,-3.483817715422963
mp-1283043,CoO2,-1.1620838025000009
mp-12832,Ba3CaRu2O9,-2.45430815375
mp-12834,ThCu6,-0.1408532842857153
mp-1283454,Li2NiO2F,-1.9957137753372216
mp-1283577,CrO,-1.981034770625
mp-12837,Er3FeSi3,-0.7507059049999997
mp-12838,Tm3FeSi3,-0.7545029592857142
mp-1283831,Sr2TaCoO6,-2.9290302355833333
mp-1283849,SrCoO3,-2.031610421083333
mp-1284095,LiNi3O4,-1.221349350833334
mp-12843,YCuS2,-1.7038710842708342
mp-1284552,Sr2TaMnO6,-3.1146008991448504
mp-12846,YbGaGe,-0.6132098597222223
mp-1284649,NaMn2Mo2H3O10,-1.971297003032796
mp-1284679,Li2FeCo3O8,-1.660838739166667
mp-1284706,MgV2O4,-2.684642183333332
mp-1284741,Ca2V3O8,-2.86903819
mp-1285,PtO2,-0.9368699825
mp-1285223,Sr2MnNbO6,-3.0059444801448505
mp-12854,ZnCu2GeTe4,-0.1867104181250001
mp-12855,Cu2HgGeSe4,-0.2435764586718751
mp-1285565,YCrO4,-2.7767347601388885
mp-12856,Pr(AlSi)2,-0.3915651269999998
mp-1286142,BaFe2(PO4)2,-2.7184995893956048
mp-12862,LuTaO4,-3.756187550833333
mp-1286228,MnAgO2,-1.444522278487126
mp-1286297,Mg3Fe2O5,-2.524827756625001
mp-12863,Ba(AlSi)2,-0.2898440720000003
mp-1286332,Sr2Co(BrO)2,-2.2280284008333333
mp-12866,SrSnO3,-2.644670087083333
mp-1286807,AlV2O4,-2.769026598571429
mp-1286841,Mg4FeO5,-2.791394557958333
mp-1287,KS,-1.263591533895833
mp-1287195,Ba3Cr2O8,-2.639979512307692
mp-12872,ErIn5Co,-0.2137029878571432
mp-1287553,SrLaCoO4,-2.808211695952381
mp-12876,ThPS,-1.771077250565477
mp-1287635,NaFe2P2HO8,-2.375000561840205
mp-1287707,Na(CoO2)3,-1.4470958692499998
mp-12878,Sr2YSbO6,-3.109309826416667
mp-12879,Tb2Si5Rh3,-0.9865053254999993
mp-1287949,Sr2FeWO6,-2.7090987230833337
mp-12881,Ba3NbGa3(SiO7)2,-3.0350863398913046
mp-1288155,Ba2MnNbO6,-2.9722193918115183
mp-1288227,LiV2O4,-2.511876111666667
mp-12884,Hf5Te4,-0.6539053533333335
mp-12885,BaAl2Sb2O7,-2.777803508229167
mp-1288691,FePH6NO5,-1.6142743099229588
mp-1288982,SrLaVO4,-3.2392641391666666
mp-12894,Y2SO2,-3.589075028458332
mp-1289469,Sr2CoGe2O7,-2.542084913506945
mp-12895,YbGa4Ni,-0.497681221111111
mp-12896,NdAl4Co,-0.5129815483333342
mp-1289745,Ba2FeMoO6,-2.59096266575
mp-12899,HoSi,-0.8282508499999999
mp-129,Mo,0.0
mp-12900,HoSi,-0.8255771474999998
mp-1290075,FePH6NO5,-1.61152006885153
mp-12902,ErAgTe2,-0.8995846608333329
mp-12903,YAgTe2,-0.9280885716666668
mp-12904,HoAgTe2,-0.907306358333333
mp-12905,Ba3CrN3,-0.919017679591428
mp-12906,Sr3CrN3,-0.9934474160199988
mp-1290671,Li2V3CrO8,-2.493192874880951
mp-12908,ScAgSe2,-1.089200975755208
mp-1291,ErIn3,-0.3766642724999998
mp-12911,Ba2LaRuO6,-2.78958036025
mp-12912,Ba2PrRuO6,-2.7470992042499995
mp-1291532,Sr2NbCoO6,-2.8110004183333324
mp-1291775,Ba2TaMnO6,-3.0811617278115166
mp-12919,LaPIr,-1.195116909523809
mp-12920,CePIr,-1.2127601745238106
mp-12921,PrPIr,-1.127816591190476