material_id,pretty_formula,formation_energy_per_atom
mp-1197987,Na3B6BrO10,-2.6746251640000005
mp-1197988,Rb8Zr(MoO4)6,-2.354866385641025
mp-1197989,RbHSO4,-2.0817935798921425
mp-1197990,Pr23Cd4Ru7,-0.2317031910294113
mp-1197996,Sr5(Sb11O19)2,-2.053367765782052
mp-1197997,Ho5Ir3,-0.8369544340625001
mp-11980,CsNbF6,-3.45429715813388
mp-1198001,Dy2HfS5,-2.292331909453125
mp-1198014,Pr3Si11Pt23,-0.8865683771621614
mp-1198017,Ho2B6Ru,-0.6902769169444443
mp-1198019,ReN2(OF2)4,-1.7109660035353338
mp-1198025,LiZn2(BH4)5,-0.2150716591333333
mp-1198027,LiSi2B,-0.1441820906249997
mp-1198043,SrSc4Si5O17,-3.5838447901080253
mp-1198049,Li6Nd(BO3)3,-2.819436306776314
mp-1198053,Cs3Ag2Sb3S8,-0.8906851675287353
mp-1198059,Hf2Be17,-0.2271876586842109
mp-1198065,BaMgBO3F,-3.319983232610476
mp-1198073,CsH4NF2,-1.593037299646379
mp-1198074,Hf(TlS)4,-1.0937514898333336
mp-1198078,Sm2ZrSe5,-1.676143990423177
mp-1198079,VP3(Pb2O7)2,-2.355021814748377
mp-1198083,Gd5Ge4,-0.842826630833334
mp-1198091,Hf7Ni10,-0.5163564882352937
mp-1198094,Cs4U(Ge2O5)4,-2.2902051835370942
mp-1198095,CsAlH24(SO10)2,-1.6609913468971051
mp-1198103,CuAs7PS7Br,-0.4577128064968492
mp-1198110,Ba2B5HO10,-2.9477731336270363
mp-1198114,RbSb3Se5,-0.4529968546354163
mp-1198123,AlH7C2SCl4,-0.8992348728503335
mp-1198124,CsB2P2HO9,-2.6448379474407044
mp-1198126,NaUP3O11,-2.901245448091519
mp-1198134,Ta3As,-0.3240428881249997
mp-1198141,TaCdBF10,-3.2502162509794874
mp-1198145,CsB5O8,-2.84245193506055
mp-1198156,Zr(TlS)4,-1.0798913249444448
mp-1198161,NdSn3Ru,-0.4876850267500003
mp-1198165,Tm5(Ge5Ir2)2,-0.757625501140351
mp-1198170,Nd(BRu)4,-0.451406325092593
mp-1198172,Dy5Zr3(Ni4As3)4,-0.8319859694444453
mp-1198176,NbAl2(SeCl4)2,-1.663678574289808
mp-1198185,BaGe2Au5,-0.3551595249999999
mp-1198195,Tm5Ir3,-0.8837132636458334
mp-11982,Sr2CaTeO6,-2.814096668583332
mp-1198201,Lu(PO3)3,-3.052245953708791
mp-1198204,CsErP2O7,-3.169636787393081
mp-1198205,Y3Ge13Os4,-0.3444022262499999
mp-1198232,Nd4Rh6Pb19,-0.2701295720689657
mp-1198234,Li3V(H4O3)4,-1.6629311654037489
mp-1198240,La5(Sn5Ir2)2,-0.7137098089473688
mp-1198243,Mg2Be3P3H13O19,-2.219050476329774
mp-1198252,La2Sb4Ir3,-0.7664213119444452
mp-1198260,Ce3Ge13Ir4,-0.5303004857500007
mp-1198263,Ba2B2AsH3F18,-3.053908042651796
mp-1198273,SrP11H28N9,-0.4751296860965789
mp-1198275,PrV2IO9,-2.302945265865384
mp-1198276,AgSb3PbS6,-0.6362496841098484
mp-1198288,Sn2Bi2O7,-1.9500373499621204
mp-1198294,Dy2B6Os,-0.6538881713888887
mp-1198295,K6Na14Tl18Zn,-0.1207034700769228
mp-1198297,H12PdC2(N3Cl2)2,-0.6962409547303997
mp-1198302,Nb3Ge,-0.3194392756249993
mp-1198309,Sc5OsCl9,-2.1594968773726664
mp-1198311,Hf(TlSe)4,-0.728144071930556
mp-1198318,Ho3Co4Ge13,-0.4141498214999998
mp-1198319,Ho3Ir2,-0.8297716488571423
mp-1198324,Li2B8SeO15,-2.65130923811899
mp-1198327,Gd2Fe14B,-0.1067344310784305
mp-1198329,K2MgH12(SeO7)2,-1.5911231296761563
mp-1198331,Rb4LiH3(SO4)4,-2.1700863881259527
mp-1198337,Yb2Fe3Si5,-0.5278168845833335
mp-1198338,Lu10In20Ni9,-0.4018707815384615
mp-1198347,Tb6Al43Cr4,-0.2714193206603771
mp-1198354,CeGe3Ru,-0.5413856780000004
mp-1198358,B2Pb6WO12,-1.996511157936508
mp-1198361,Al(BiCl)4,-1.09651376006
mp-1198362,Tl2NiH12(SeO7)2,-1.322715772923467
mp-1198370,Ca11Sn3C8,-0.3542376765909093
mp-1198371,NdCO4,-2.5199340583333334
mp-1198373,K3Nd(Si2O5)3,-3.17313279451
mp-1198384,Cs3InP2,-0.3207618697393274
mp-1198385,Bi2B8O15,-2.6361497246166663
mp-1198388,Y2Mn3Si5,-0.6155587915632182
mp-1198391,LaAgAs2,-0.8336352995833334
mp-11984,YMgTl,-0.3520720233333334
mp-1198408,Ba2HRu3O10,-1.9387302178825
mp-1198409,Sm13Zn58,-0.3325217888497653
mp-1198411,U11(PbO12)3,-3.4060480372
mp-1198415,Cs4(BSe)9,-0.6023198671735401
mp-1198418,TaTe4Cl4O,-1.2769701561789994
mp-1198419,K2Cd3Se4,-0.8443201261527776
mp-1198436,Mo(NO4)2,-1.2641526670236374
mp-1198439,TlV2I3O13,-1.3990147608552623
mp-1198443,Na2Al3P3(HO7)2,-2.8091893584564303
mp-1198456,Na2ZnP4(H4O5)4,-1.9313676337722263
mp-1198460,Ba7Ga5AgSe15,-1.3380519786960563
mp-1198461,Na5FeP2(O4F)2,-2.641686728897103
mp-1198462,KNaNbOF5,-3.287005825855556
mp-1198465,Er2B6Ru,-0.7069196169444444
mp-1198474,Dy5Bi3,-0.6758141709375005
mp-1198476,CeSn3Ru,-0.5500882102500008
mp-1198481,KAsW2O9,-2.0956152684038463
mp-1198488,Er6Al43Mo4,-0.3119276966037737
mp-1198491,Be2NiH20N2(O3F4)2,-1.7146051060046152
mp-1198492,Yb5(Ni2Ge5)2,-0.6019037878070171
mp-1198495,SrH10Pb2Br6O5,-1.3602361120465278
mp-11985,LaMgTl,-0.3762091527777775
mp-1198503,U(Zn10Rh)2,-0.1720472952173914
mp-1198507,PrSn3Ru,-0.4918887517500003
mp-1198509,GePb2(SeO3)4,-1.4912637052302626
mp-1198510,P2H9NO8,-1.7136989043551425
mp-1198511,Tb3Co4Ge13,-0.4197591947500001
mp-1198513,Pr2Nb2S7O30,-2.390233303887195
mp-1198518,Er11(AlGe4)2,-0.8027992952380946
mp-1198529,HfHg4(AsCl3)2,-1.196008337466154
mp-1198536,Tb5P12Ru19,-0.8619680670238097
mp-1198538,Ta3Br7,-0.88676833675
mp-1198546,Er3Ga2,-0.5431133592500004
mp-1198551,BaTi(S2O7)3,-2.251811726551724
mp-1198565,CuPb5Se4(ClO3)4,-1.4253584822082694
mp-1198572,YbAlB14,-0.2085027936458319
mp-1198577,In2B(PO4)3,-2.5799134088359787
mp-1198585,Sm6Fe13Pb,-0.0890881682500008
mp-1198591,RbMoPO6,-2.4292781412301583
mp-1198592,BHO2,-2.3046235313216665
mp-1198596,Li2P7(H3N)9,-0.517499983166518
mp-1198597,Pr2Ni22C3,-0.1071060707407411
mp-1198599,BaTi(SiO3)3,-3.394767538303572
mp-1198610,Nb4FeTe4,-0.4354513516666658
mp-1198611,U2NiP2(HO)24,-1.8902557680004304
mp-1198622,Li7La3Hf2O12,-3.204798488402778
mp-1198625,H7N2F,-0.9267077008790005
mp-1198628,Na3RuO4,-1.6672935459374996
mp-1198636,Ba5V4(ClO7)2,-2.9268263926608
mp-1198642,Y7Co6Sn23,-0.4295871462037037
mp-1198646,Cs4BaV6O18,-2.525118352731865
mp-1198649,K9Y3Si12(O16F)2,-3.211276147575517
mp-1198653,Na2TmPWO8,-2.8183697922619046
mp-1198658,Yb3Co4Sn13,-0.3281043812499994
mp-1198663,K2Li(H2N)3,-0.5776226420022219
mp-1198664,Cs3CaFe(P2O7)2,-2.7681181679599485
mp-1198669,La3Te4Br,-1.6750607034375
mp-1198672,OsSeS3Cl4,-0.7934192452509726
mp-1198681,Pr5Pb4,-0.5765773291666668
mp-1198682,GaPH9C3Cl3O,-0.8288823820656354
mp-1198687,La2ZrS5,-2.393356384453125
mp-1198689,Yb5(Ni2Sn5)2,-0.5262637878070177
mp-1198690,MoI2,-0.3904592094444439
mp-1198692,Ti5Ge4,-0.6883987461111095
mp-1198694,CsVPO5,-2.6623605653440574
mp-11987,SmMgTl,-0.3512886133333334
mp-1198707,Dy2B6Ru,-0.6724940316666669
mp-1198710,Pr2Re3Si5,-0.5502960645000001
mp-1198712,Y5Ir3,-0.7796197342708346
mp-1198715,Er3Rh2,-0.8179850359999997
mp-1198717,KYF4,-4.0244441944414815
mp-1198721,Rb2Mo3SeO12,-2.02205479985243
mp-1198724,P,0.0
mp-1198726,Li(BH)6,-0.3914770716066661
mp-1198731,NaTb(SiO3)2,-3.3445888532500008
mp-1198736,NdCd11,-0.1548816336111112
mp-1198737,CsTc3(Se2Br)2,-0.8254607857306034
mp-1198740,Li7Nd3Zr2O12,-3.1081175121527784
mp-1198754,ZnSnP14,-0.0484419162499998
mp-1198756,Nd3InS6,-2.086156178625001
mp-1198762,InSeClO3,-1.551896130933958
mp-1198764,Gd2Re3Si5,-0.5938836975000001
mp-1198767,SrV2TeO8,-2.398673832326389
mp-1198778,Te6RuBr8,-0.3336146478333333
mp-1198782,Ca2Al3H3O8,-2.9112206958350004
mp-1198784,Cs2UNb6(Cl5O)3,-2.081016525130076
mp-1198790,Nb12WO33,-2.9628751472010864
mp-1198796,RbSnF3,-2.806800770839
mp-1198803,Sc5Ge4,-0.8463290861111111
mp-1198818,La3Mo4O16F,-2.817771334841249
mp-1198824,Er10Mn13C18,-0.3349549491589567
mp-1198832,Ta13Co40Si31,-0.5935771935119056
mp-1198841,NbBi4BrO8,-1.990477393035714
mp-1198842,CsCuPS3,-0.9744364591045772
mp-1198844,TbNiSn2,-0.592857636458333
mp-1198857,Rb4V2S4O19,-2.284944613836207
mp-1198859,Bi(WBr3)3,-0.5698075848076922
mp-1198863,Hg3(SCl)2,-0.7413617982974999
mp-1198882,Y5RuBr9,-1.6140394449444444
mp-1198887,Cs3Te13Mo12,-0.4560289735283253
mp-1198889,Dy5(Si5Ir2)2,-0.8939726960526316
mp-1198898,CsTh2(PO4)3,-3.355436849091406
mp-1198900,CdSb5OF28,-2.4749323567020003
mp-1198901,Cs2CuH8(SeO6)2,-1.4339430191803826
mp-1198905,Cs12Sn8GeO4,-0.8742959067068966
mp-1198906,V2Co3TePb3O14,-1.8538489998913044
mp-1198913,RbYb(PO3)4,-2.733289651858465
mp-1198914,Dy6Al43Cr4,-0.2697337670754716
mp-1198917,ZrMnGe2,-0.4842858749137934
mp-1198918,Rb2Cu3(P2O7)2,-2.245657979642857
mp-1198919,Ba3Te3(BrO4)2,-2.22800508296875
mp-1198923,Cd2AsHO5,-1.6249894824161102
mp-1198929,Tb2ReB6,-0.6061161430555555
mp-1198930,LiGa(SeO3)2,-1.7291954818854165
mp-1198931,CsAg7S4,-0.4431044865636977
mp-1198935,K2Na2Sm4Ta2O13,-3.3004743411123187
mp-1198939,Tm5(Ge5Os2)2,-0.5326111474561402
mp-1198940,Nd3Co4Sn13,-0.3772401174999998
mp-1198941,KNi3P3O11,-2.2266477702757927
mp-1198942,Mg3(TaAl9)2,-0.1217525199999999
mp-1198944,CsP2H5O8,-2.108144150979617
mp-1198946,GdCo5P3,-0.827685910357142
mp-1198948,Y5(Ge5Rh2)2,-0.8216951895614034
mp-1198953,Cs9(NbAs3)2,-0.4370540914046652
mp-1198956,Nd2ThS5,-2.4628877391406254
mp-1198965,Er2B6Os,-0.6880443897222214
mp-1198966,SiAg2(S2O7)3,-1.837348444555556
mp-1198968,Be2P2PbO8,-2.7979609468956044
mp-1198971,KRb2GaF6,-3.087389402714
mp-1198974,La2ThSe5,-1.959649206152344
mp-1198976,Ba3GaS4Cl,-2.200293131751111
mp-1198979,K6Na14MgTl18,-0.1343014059316239
mp-1198980,Tb5Pt4,-1.1423073636111114
mp-1198991,Rb3H12N5,-0.5269732986419996
mp-1198994,BaBAsF10,-3.19772668828718
mp-1198995,Sb3Pd8,-0.4545075095454546
mp-1198999,Ho5Pt4,-1.1832692619444445
mp-1199,HoMg,-0.0752273716666662
mp-11990,Pr2CdNi2,-0.3407025929999996
mp-1199005,Yb5(Ge5Ir2)2,-0.6184570814912284
mp-1199006,Tb2HfS5,-2.300535425390625
mp-1199009,Ba3B6H2O13,-2.9036704168120835
mp-1199012,Sm(BRu)4,-0.4729618315740743
mp-1199016,Ga5Pt,-0.3057449012499997
mp-1199017,TlSb3F18,-2.5456249196100003
mp-1199019,AgSbS(OF3)2,-2.222799048963485
mp-1199023,Dy2ZrS5,-2.282562587265626
mp-1199026,Tb4BClO7,-3.7279981946417946
mp-1199029,TlP2HO7,-2.150801175637533
mp-1199038,HoCo5P3,-0.84461793452381
mp-1199040,K3Bi2(NO3)9,-1.2558377527236582
mp-1199047,Fe2P12W,-0.3488224970238093
mp-1199053,LaTmS3,-2.5701797197916667
mp-1199056,RbGe,-0.1805003631249997
mp-1199057,Ba4NaB10Cl(O9F)2,-3.099803977679814
mp-1199065,Sm4GaSbS9,-1.921478037430557
mp-1199068,Pr(Cd10Ni)2,-0.1128334617391304
mp-1199071,Pr(Cd10Pd)2,-0.2087536369565219
mp-1199077,Ba2B6H4O13,-2.6626799970292
mp-1199087,CdSnP14,-0.0406901267187498
mp-1199088,Rb4Mo5(PO11)2,-2.3275620301406925
mp-1199091,Li3B5(HO5)2,-2.599539899945332
mp-1199096,Ca3Al4CoO10,-3.2234241243055544
mp-11991,Nd2CdNi2,-0.3602453760000003
mp-1199103,U(Al10Cr)2,-0.1471073658695649
mp-1199106,Tm5Pt4,-1.2139110101851849
mp-1199122,Li2Ca(SiN2)2,-1.280824476798517
mp-1199124,NaAl2H18S4N4ClO18,-1.642355170582082
mp-1199125,In2Se2O7,-1.598492926676137
mp-1199127,La6Co13Sn,-0.1614525602500009
mp-1199133,Y11Sn10,-0.7822669434126984
mp-1199136,K2SmMoPO8,-2.844229667531136
mp-1199137,P2H12C4O3,-0.773476119015851
mp-1199143,Nd3Zn22,-0.284416194
mp-1199144,PrErS3,-2.469510673875001
mp-1199147,K9Fe2O7,-1.5667155030972222
mp-1199156,Na2Cu(NO3)4,-1.1998630486589472
mp-1199158,Tm11Sn10,-0.6931112753174611
mp-1199162,La2US5,-2.2896192066406256
mp-1199166,Be17Os3,-0.2725135236250004
mp-1199170,Sr2V2Se3O13,-2.1712064644557287
mp-1199182,KCu2SbSe3,-0.4425879355401783
mp-1199190,Ba4Bi(IrO4)3,-2.099971378916666
mp-1199191,Sb2S4O15,-1.8943757619642847
mp-1199197,HC2N3,-0.2259408341544444
mp-1199198,Al2B3HO8,-2.93605921758
mp-11992,LiLa2IrO6,-2.784105735916667
mp-1199210,Li3MnP2(O3F2)2,-2.8173395779698764
mp-1199212,HgSb2F13,-2.304429849560625
mp-1199215,LiSm(PO3)4,-2.937848937182539
mp-1199216,Cs2ZnBi2S5,-1.115657889898707
mp-1199218,Li3As7(H3N)13,-0.5292253144293544
mp-1199235,La5Ir3,-0.6708543025000004
mp-1199237,PrSbMo2O9,-2.4300688620192314
mp-1199242,Pb(IO3)2,-1.057214150277778
mp-1199243,Cs6Ho21S34Cl,-2.4034675852757448
mp-1199244,CsCuS6,-0.8159439508351296
mp-1199246,Ba5B3BrO9,-3.1044817467361097
mp-1199248,CsMo2P3O13,-2.5151219692050155
mp-1199251,KB5(H2O5)2,-2.4142127294573337
mp-1199256,Ag13As3(IO3)4,-0.7970212307291673
mp-1199265,Nb2Pb2Se4O15,-1.901247866875
mp-1199267,TbFeSb3,-0.4610766372499995
mp-1199277,DyAu6,-0.4096484167857142
mp-1199278,NdMoClO4,-2.7237453799300004
mp-1199284,Gd4GaSbS9,-1.941751564541666
mp-1199290,Cs6U2(Cu4S5)3,-1.132789398556034
mp-1199295,Cd41Ir8,-0.0725720573469389
mp-1199296,Gd5P12Ru19,-0.857590812857143
mp-1199297,HoAgS2,-1.6433882864583338
mp-1199315,Lu3Ga2,-0.5405482062499992
mp-1199321,K5In3P6Se19,-0.528585260483631
mp-1199328,Ba3U2As4O19,-2.7212327503125
mp-1199335,Sb2H18C3(IN)9,-0.4968360145507317
mp-1199340,MgBi4(PO6)2,-2.31207612772243
mp-1199361,Ho6Al43Cr4,-0.2679151809433963
mp-1199385,Er10In20Ni9,-0.4190740569230768
mp-1199401,Nd(NO3)3,-1.550865068626154
mp-1199428,K6In3H12(N8O27)2,-1.2831471196375823
mp-1199430,TiFeGe2,-0.4243782445833328
mp-1199431,Ho2ZrS5,-2.2727054044531254
mp-1199442,Sc5RuCl9,-2.162755786956
mp-1199443,SnH6C(NCl)3,-0.8273160757957143
mp-1199446,RbLiSO4,-2.4018635417559526
mp-1199449,Mn9(PbO5)4,-1.826372010622321
mp-1199451,B2S3,-0.8316408507683327
mp-1199453,KLiMoO4,-2.309878141738095
mp-1199456,La5P12Ru19,-0.8304724602182555
mp-1199459,Yb2(SO4)3,-2.436602436262255
mp-1199465,Ho6H40N8O49,-1.6671939897581554
mp-1199467,Lu5Ge4,-0.8287202675
mp-1199482,K2Gd2Sb2Se9,-1.0406720733062504
mp-1199486,Gd5Si4,-0.7349815727777774
mp-1199487,MoH8(S2N)2,-0.7043239990813324
mp-1199497,CsMo3I7,-0.5995284611755484
mp-1199499,K4Ba2B14H16O33,-2.382166344099082
mp-1199511,RbP2H5O8,-2.099614977671428
mp-1199517,Pr7Si5Ni2,-0.6484089596428565
mp-1199518,Sc2Ge4Mo3,-0.5451257119444435
mp-1199522,Er2(Ni5B3)3,-0.4214909135576924
mp-1199531,Gd5C2Cl9,-2.2242965554275
mp-1199541,NaB5PbO9,-2.688191247057291
mp-1199544,Er5(Co2Si7)2,-0.6593012243478253
mp-1199549,Ta4CoTe4,-0.381845321388888
mp-1199558,Sm5Ir3,-0.6901416189583331
mp-1199562,Na2TbPWO8,-2.807900532967033
mp-1199564,Li2AlB5(H19N3)2,-0.4784118875353841
mp-1199571,Lu11Cd45,-0.191248155625
mp-1199574,Ca4As3H9O16,-2.122784083361875
mp-1199575,Ba2Cu2Te4Br2O11,-1.739515746607143
mp-1199582,Pr12(ReC3)5,-0.223412299531251
mp-1199583,Nd12(ReC3)5,-0.2518458207812504
mp-1199587,Yb2VO5,-2.9661162458854164
mp-1199600,Lu6Te2Au,-0.7718658769444444
mp-1199625,Hg3HN2O7,-0.8660493347792312
mp-1199629,Ba2CdP4(H3O8)2,-2.4367617465864035
mp-1199633,Cs3Ag(AsSe2)4,-0.5199126761485271
mp-1199637,Sr8Li2B22H2O43,-3.0009721015713
mp-1199642,Sr2V4Te2H2O17,-2.29465009321568
mp-1199665,Lu13Zn58,-0.2965993558450704
mp-1199667,Tl2(ReS2)3,-0.8717739142045453
mp-1199670,Rb5Er(MoO4)4,-2.425984883749999
mp-1199678,Cs2P4Pd3O14,-2.1989977416368607
mp-1199691,MgB4(H10N)2,-0.3899894006046907
mp-1199692,YbCo5P3,-0.7876429208201061
mp-1199697,Ce3(Al3Pt2)2,-1.1618943146153844
mp-1199702,Ba2GaS4,-1.8906606571428577
mp-1199715,K2In2P3Se10,-0.4890786470677522
mp-1199719,Na3Fe2P2O8F3,-2.6380245998312706
mp-1199722,Bi(W2Cl5)3,-1.176422681654545
mp-1199723,Ce4In21Pd10,-0.4987513357142851
mp-1199727,Rb2Ag2Sn(PSe3)3,-0.4307214034396885
mp-1199732,Yb6Ti4Al43,-0.2687136293396228
mp-1199735,CsY2CuTe4,-1.113078166199713
mp-1199736,Y11Cd45,-0.2554086228869047
mp-1199737,K6Al4Si6BH4ClO24,-2.889350604436376
mp-1199741,Zn3TeP2Pb3O14,-2.097250176868529
mp-1199743,CsInTe2,-0.7338677269827585
mp-1199747,Li2MgB4(H17N3)2,-0.5077341529757442
mp-1199752,Cs4PbO3,-1.3777534488092664
mp-1199771,Ce2Nb2S7O30,-2.4399287516920727
mp-1199790,Cs10P4PdSe16,-0.8332138169708405
mp-1199792,Gd4(SiS4)3,-1.8405830959210536
mp-1199794,Tm10In20Ni9,-0.4153439907264963
mp-1199796,GdCO4,-2.5231303624999986
mp-1199798,CsReS2,-1.1302447381285925
mp-1199808,Tl2NiH12(SO7)2,-1.542847885554517
mp-1199829,AlH15Br3N5,-0.7857687607791662
mp-1199830,KCd(BH4)3,-0.2345378465552937
mp-1199833,Cs10Tl6SiO4,-1.032264253300493
mp-1199840,Cs5As(PSe3)4,-0.6292070362302676
mp-1199841,Dy3InS6,-2.075212707625
mp-1199844,BaBPF10,-3.4079057637542123
mp-1199846,AgSb3IF24,-2.2880847393756323
mp-1199849,Dy(PO3)3,-3.0275399912408423
mp-1199855,ZnSb2Cl2O3,-1.68297679065875
mp-1199865,NaLa(GaS2)4,-1.432704610714286
mp-1199867,SmCo3P2,-0.8842765000793646
mp-1199868,Y6Al43W4,-0.278563471509434
mp-1199869,U(Zn10Ru)2,-0.1189652360869563
mp-1199885,Li12Mo5O17,-2.220344442977941
mp-1199892,RbGeB3O7,-2.6516969567708344
mp-1199895,Ho3(Si3Ru)4,-0.6447084302631577
mp-1199908,Cs7NaSi8,-0.0691867540948272
mp-1199912,Ce(Zn10Ir)2,-0.2294704552173913
mp-1199915,Lu2B6Os,-0.7197459197222223
mp-1199917,Ho5P12Ru19,-0.8619219006349207
mp-1199934,Ti3As,-0.6629766318749999
mp-1199935,Sr2Re6S11,-1.2327364569846475
mp-1199938,P2S7,-0.636750346001985
mp-1199943,Tb(BRu)4,-0.494663211203704
mp-1199949,Tm5B2(O2F3)3,-4.064447399615606
mp-1199952,Nd6InFe13,-0.0476519567499991
mp-1199961,Li2V2(PO4)3,-2.707835377449874
mp-1199965,Ge3Rh2S3,-0.7960003727343743
mp-1199966,HoNiSn2,-0.5743861522916666
mp-1199971,Rb2PH4Se3O2,-1.0748019072985564
mp-1199972,Ho10Mn13C18,-0.3248795820857875
mp-1199974,Al3Pb5F19,-3.2293909478744443
mp-1199978,Ho11(In3Si2)2,-0.5928145626190474
mp-1199992,Nb3Te4ClO15,-2.195820773891738
mp-1200013,Rb18Mg6B29O58F,-2.7869752060299686
mp-1200053,LuFe5P3,-0.7518599364682532
mp-1200054,V4Fe2O13,-2.236222083092105
mp-1200057,Li7La3(SnO6)2,-2.7269493281944435
mp-1200062,Ga16Rh3,-0.2963742136842104
mp-1200065,La6Co13Bi,-0.1747550817500006
mp-1200066,Tl3Bi3(PS4)4,-0.7606206378571426
mp-1200068,Ba4Ru3O10,-2.288792142205882
mp-1200073,LuCo3P2,-0.9463444936904758
mp-1200080,Pr3Rh4Pb13,-0.2945883227500004
mp-1200086,Rb3P3H5N,-0.4289559918703567
mp-1200087,La(TiAl10)2,-0.2455812095652176
mp-1200099,Rb2ZnBr4,-1.4395293263095237
mp-1200101,Er(PO3)3,-3.033758911240843
mp-1200102,CaAgGe,-0.4936976038888885
mp-1200107,K3HS3O11,-2.183451903513611
mp-1200112,Sr3TeO6,-2.75529703
mp-1200116,Pr(Al10Cr)2,-0.1426006404347819
mp-1200122,Tm3Ge13Os4,-0.3277822254999997
mp-1200123,NaSm(PO3)4,-2.912511740839948
mp-1200124,PPb2IO4,-2.033020053883929
mp-1200130,Rb5Tl9,-0.1190427655357142
mp-1200137,B3H4NO5,-2.006773054662306
mp-1200141,Ba3Bi(BO2)9,-2.9393964568548387
mp-1200142,KPr(PO3)4,-2.924158931793651
mp-1200148,Er11(In3Si2)2,-0.5877579845238093
mp-1200150,ZrGa2Ni,-0.5883793082499998
mp-1200153,Yb11(SnBi4)2,-0.8061163482539682
mp-1200167,Y11(In3Ge2)2,-0.6921176555555552
mp-1200170,Ba5Cr3O13,-2.6254446255357142
mp-1200171,Cs3VS4,-1.5302428701616382
mp-1200172,Pr2USe5,-1.640628420527344
mp-1200181,Cu2As9P3S9I2,-0.4200390096535721
mp-1200186,Tm(PO3)3,-3.037613327715201
mp-1200187,BHS3O11,-1.928914808129896
mp-1200190,PrSiP3,-0.6841110543928565
mp-1200191,Ga21Rh4,-0.3040395623999996
mp-1200192,Tb2B6Ru,-0.6521192649999992
mp-1200193,Bi2Mo2Se2O13,-1.732495446628289
mp-1200195,ScMnGe2,-0.5087122219971268
mp-1200201,Hg6P4PbCl6,-0.6824629121379832
mp-1200203,Bi2(S2O7)3,-1.916211294827586
mp-1200206,Rb2U6Pd4S17,-1.5455289789008613
mp-1200207,Cs8Ga11,-0.1417503399183302
mp-1200209,Li2B6O9F2,-2.9101599035243857
mp-1200210,BaV2SeO8,-2.3233581829036463
mp-1200211,Ca3Sn13Ir4,-0.4499621370000007
mp-1200219,V4Cr2O13,-2.370105881776316
mp-1200224,CsPSO2,-2.1518130887588267
mp-1200226,Dy5Ir3,-0.8141041846875003
mp-1200233,DyAgS2,-1.6505479411458333
mp-1200242,GdAgS2,-1.661767230833334
mp-1200246,Sm2Fe3Si5,-0.6617696156666668
mp-1200253,CsMoN3O11,-1.349874924926315
mp-1200258,HgS2O7,-1.6858490950000005
mp-1200271,AgPd3Se,-0.171236730135417
mp-1200278,SnH7Cl3O4,-1.4285624171746667
mp-1200288,Pr(SiP3)2,-0.4328644061309517
mp-12003,Al9Ir2,-0.5249589100000004
mp-1200300,K2SrVB5O12,-2.8428873611587293
mp-1200302,Y3Co4Ge13,-0.4176256322500002
mp-1200320,NdCo5P3,-0.7734330300793657
mp-1200323,Na3NbAs2O9,-2.2360710537500004
mp-1200326,Pr(In2Pd)2,-0.5725715501428575
mp-1200330,Cs2K2B10O17,-2.8064759639175936
mp-1200333,La6CoCl11,-2.365548031992222
mp-1200338,Y15Ni32,-0.4223253961702133
mp-1200348,Pr3Co4Sn13,-0.37897193875
mp-1200353,Cs4K3U3Si4O20F,-3.1802416581975463
mp-1200384,Hf3(VGa2)2,-0.4145541987499999
mp-1200389,Fe7Sb3P3(ClO6)3,-2.1112998162645376
mp-1200391,KNb(BO3)2,-2.896322931341666
mp-12004,Er2Al3Si2,-0.5373429828571429
mp-1200408,SrMo2Se2O11,-1.9881614750065104
mp-1200409,La2ZrSe5,-1.7873870433398444
mp-1200410,Er5P12Ru19,-0.8608951939682549
mp-1200412,Y3Ge13Ir4,-0.5212414462499992
mp-1200427,Tm2Re3Si5,-0.5838342984166672
mp-1200432,Ca2Al8PbO15,-3.325679792932692
mp-1200437,Ca2Zn3Si3PbO12,-2.790530676071428
mp-1200444,Ba8Si6Sn,-0.4580055449999998
mp-1200447,LaYS3,-2.551149756041667
mp-1200449,Ce3Sn13Ir4,-0.5085861364999993
mp-1200455,Dy6Al43W4,-0.2766296060377367