material_id,pretty_formula,formation_energy_per_atom
mp-1030752,Sr8Co3N8,-0.6846487972301748
mp-10308,Ho2Ge2Rh,-0.9473810319999998
mp-1030950,K15W7N19,-0.6609149692736584
mp-1031,GdCd,-0.3529868900000004
mp-10311,ZrVGe,-0.6638532383333337
mp-10314,Yb(ZnAs)2,-0.6915804313333332
mp-10318,Tb2Co3Si5,-0.7728252209999994
mp-10320,La2MgRhO6,-2.958283438583334
mp-10321,La2ZnRhO6,-2.67477797925
mp-10322,BaHfN2,-1.5335205411899997
mp-10326,Zn(ReO4)2,-2.1129805468181813
mp-1033,BeNi,-0.4682447625000003
mp-10333,Pr(ZnP)3,-0.5873285629591837
mp-10334,Pr(CdP)3,-0.4820780551020403
mp-10336,BaYCuTe3,-1.2475955547222224
mp-10337,BaYAgTe3,-1.262403744444444
mp-10339,SrNbO3,-3.1902146580833333
mp-1034,Th2Cu,-0.0955570916666666
mp-10340,Na2GeTeO6,-1.96220172125
mp-10341,SrGeTeO6,-2.284309818240741
mp-10342,Tm6ReO12,-3.693465149473683
mp-10343,Sc2BC2,-0.5701304316666679
mp-10344,Ba2PrNbO6,-3.3650467707500007
mp-10348,LaSc3(BO3)4,-3.480994016916667
mp-10350,BaNdCuBO5,-2.8479375621759258
mp-1035281,Mg14CoNiO16,-2.827911516302084
mp-10359,Zr(CoGe)6,-0.3374895184615372
mp-10366,Nb2Co3Si,-0.4532842583333334
mp-10368,CoPSe,-0.4638776807217262
mp-1037,PrPt5,-0.6957980008333328
mp-1037175,Mg30CoNiO32,-2.9464672361718747
mp-10374,Cr3PtN,-0.396880986475999
mp-10378,Cs3Sb,-0.3040115771982759
mp-10379,Hf3(Cu2Ge)2,-0.4359585255555558
mp-1038,MgCu2,-0.1323969844444447
mp-10381,K2CuSb,-0.3127768564999997
mp-10383,LaTeAs,-1.3049402616666663
mp-1038828,CaZn,-0.243216345
mp-1038976,CeMg5,-0.0183151286111111
mp-1039,MgTe,-0.8773280741666665
mp-1039147,CaZn,-0.244906775
mp-1039148,CaMg,-0.0840631091666666
mp-10392,Sr3CdPtO6,-2.35241918340909
mp-1039345,CeMg2,-0.0219711355555555
mp-1039529,CaMg2,-0.1032989405555554
mp-10398,HoNi4B,-0.8665703797222228
mp-104,Sb,0.0
mp-1040,RbCd13,-0.0606929233928571
mp-10401,Tl2SnF6,-2.5724099796822224
mp-10402,TiTl2F6,-3.0774843030155554
mp-1040425,C,0.0078875199999988
mp-1040443,KBaBiTeO6,-2.08617197055
mp-10405,Yb(AlSi)2,-0.3165970873333329
mp-10408,K2CN2,-0.6264139321519998
mp-10409,Ba4Nd2Cd3Se10,-1.547325058601974
mp-10415,Yb3(GePd)4,-0.8114465327272733
mp-10417,KSbO2,-1.8943473138749995
mp-10418,RbSbO2,-1.87202176125
mp-10419,Na4ReN3,-0.4291589408924992
mp-1042,HfSi,-0.8189958675
mp-10430,Nb5(NiP)4,-0.8490262110989011
mp-10434,K2UTe3,-0.8568356285000002
mp-10435,Y(AlSi)2,-0.3802492226666665
mp-10436,Tb(AlSi)2,-0.3813311919999996
mp-1044,UIr3,-0.6605846475000003
mp-10443,YbSiAu,-0.7739268788888888
mp-10445,Sc6FeTe2,-0.6233987977777775
mp-10446,Sc6NiTe2,-0.6872548244444445
mp-10447,Rb2TeMo2(PO7)2,-2.3055456618877552
mp-10448,Tl2TeMo2(PO7)2,-2.1072840549829936
mp-1045,Nd2O3,-3.79072635225
mp-10450,PrAlGe,-0.6848325750000003
mp-10453,Lu(SiRu)2,-0.8964953480000005
mp-10456,HfSiPt,-1.1038407933333332
mp-10457,HfSiPd,-0.9589111916666664
mp-1046,NbSn2,-0.1506267183333326
mp-10461,NaSr3SbO6,-2.7465891075
mp-10469,NbSiPt,-0.7988721424999999
mp-10470,NbSiRh,-0.8737562158333331
mp-10474,NaPF6,-3.0675480338389285
mp-10476,NaEr(SO4)2,-2.6586469638541668
mp-10477,RbAg3Se2,-0.42085408703125
mp-10478,CeAsRh,-1.1524016866666666
mp-1048,TiNi,-0.3962320549999996
mp-10480,CsAg5Se3,-0.3205813893476611
mp-10481,RbAg3Te2,-0.3870057179166668
mp-10485,BaLiSb,-0.9449081138888888
mp-10487,RbSb,-0.4191245649999997
mp-10488,Cs2Ti(AgS2)2,-1.3005651866698598
mp-10489,Cs2Ti(CuSe2)2,-0.9618875539152304
mp-1049,SrAs,-1.076006415833333
mp-10492,Rb2SiF6,-3.453343420793333
mp-10495,NdCuS2,-1.7086068609375005
mp-10499,LiZr2(PO4)3,-3.1835268155489427
mp-1050,Ni3S4,-0.7508893817857144
mp-10500,Ho5Ni2Sb,-0.540980655624999
mp-10503,MgB4Os3,-0.2268805333333325
mp-10504,ScB4Os3,-0.4507162741666679
mp-10509,BaGaBO3F2,-3.1768447311829164
mp-1051,ErNi3,-0.4366756891666661
mp-10510,BaAlBO3F2,-3.555886648682917
mp-10516,Dy6FeTe2,-0.6068114655555559
mp-10517,LiScP2O7,-3.0932807543235934
mp-10519,Cu2SnS3,-0.6607537765624999
mp-1052,NaAu2,-0.3863468400000001
mp-10527,Y2AlSi2,-0.7381854673333329
mp-10528,Ho2AlSi2,-0.7201916480000001
mp-10529,Er2AlSi2,-0.7168484740000004
mp-1053,NdZn,-0.3141920575000001
mp-10530,Tm2AlSi2,-0.7104587973333331
mp-10531,Lu2AlSi2,-0.6925655539999994
mp-10533,YCuS2,-1.7041460111458342
mp-1054,ErTl,-0.3057705249999998
mp-10543,K3SbO4,-1.892916768625
mp-10547,RbAuO,-1.07299458375
mp-10552,RbBSe3,-0.5495885540729162
mp-10555,Ba2LiReN4,-0.9762078020233336
mp-10556,Sr2LiReN4,-1.0161592749399997
mp-10558,La3(NbN3)2,-1.5075224962981806
mp-10559,Gd3AuO6,-3.0991028327500016
mp-1056,Tb2O3,-3.9927552495
mp-10560,Sm3AuO6,-3.086976688749999
mp-10564,SrN2,-0.7493265104755551
mp-10566,Lu3BC3,-0.4972882169047616
mp-1056857,N2,8.881784197001252e-16
mp-10569,YbSiIr,-0.8815960580555556
mp-1057,Al3Ni2,-0.61320573
mp-1057015,PbS,-0.8634210015625001
mp-10572,NaPN2,-0.8277458470828565
mp-1057286,CsH,-0.2095827032755171
mp-1057315,Eu,0.0
mp-10577,Sr5NbN5,-1.0545809420666663
mp-10580,La(AlGe)2,-0.4792936390000001
mp-10581,Nd(AlGe)2,-0.4457901139999997
mp-10582,Ca5P12Rh19,-0.9427643899404762
mp-10584,Ba2LiOsO6,-2.4511937664166665
mp-1059,NdCd,-0.3267912150000001
mp-1059528,Pr,0.0096948550000002
mp-10597,Ag,0.0075204366666663
mp-10598,CuSn,-0.0319497450000003
mp-10601,Y3GaC,-0.4788060480000012
mp-10606,Sm3TlC,-0.3414793500000002
mp-10607,Lu3TlC,-0.525288101999999
mp-10608,Y3SnC,-0.6617945739999996
mp-10609,Lu3SnC,-0.6733814079999995
mp-1061,PrPt2,-1.022731471666667
mp-10611,La3PbC,-0.4288716010000009
mp-1061298,N2,8.881784197001252e-16
mp-10616,BaLiAs,-0.9469203855555554
mp-1061766,CeNiAs,-1.0193430349999997
mp-1061769,CrSe2,-0.4380898915624994
mp-1061861,TiPd2,-0.6339487699999987
mp-10620,LiPrO2,-3.1059187135416666
mp-1062030,TiS2,-1.71172460875
mp-10621,RbSbS2,-1.0459605553125
mp-10622,PrAs,-1.4914572525
mp-10623,ThSbRh,-1.0615434583333336
mp-1062310,LuCd2,-0.2714902133333332
mp-10626,Yb(SiRh)2,-1.048916803333333
mp-1062676,K2Pt,0.0092864279999999
mp-1062935,LaHg2,-0.4800371050000001
mp-1062939,CoO2,-1.161196169166666
mp-1063174,GdAu2,-0.8195477200000004
mp-1063245,Sr2Rh,-0.1384358444444438
mp-10635,SnSb,0.0034544274999994
mp-1063566,MgSc2Ru,-0.3880709783333342
mp-10636,SrSb2,-0.6685373488888887
mp-1063607,CrPdO2,-1.6974855306250003
mp-10638,ZrSb,-0.7072295658333339
mp-1063914,VFeCoGe,-0.2589301412499996
mp-1064227,Ca,0.00100915
mp-1064367,BaPd,-0.5408055224999999
mp-10644,TaTl3Se4,-0.5996920036718754
mp-1064456,CuO,-0.9493621856249996
mp-1064469,YbNiC2,-0.312211449166667
mp-1064554,BiRh,-0.1811064374999995
mp-1064719,LaNi,-0.3270414325000006
mp-1064952,NaN3,-0.3889530630349993
mp-1064981,HfCo,-0.3961422174999995
mp-1065,LaSb,-1.26722176
mp-10651,YbSi,-0.5524859258333334
mp-1065190,AgO,-0.4499120347916667
mp-1065288,GdInAu2,-0.6531995474999999
mp-1065301,TmGa,-0.6222516941666671
mp-1065514,YTlTe2,-1.0670421683333329
mp-1065609,GdTlTe2,-1.0776403449999998
mp-1065668,GdNiC2,-0.3120020199999995
mp-10658,Dy,0.0
mp-1065846,ZrBr,-1.0039511525000009
mp-10659,Ho,0.0
mp-1065995,ZrPt,-1.0830554799999996
mp-1066078,BiPt,-0.2747159925
mp-1066131,YTlS2,-1.8211583048958329
mp-1066136,YPd,-0.9120411341666664
mp-10662,K2CO3,-2.1179937216249995
mp-1066254,YAu,-0.8858751866666665
mp-1066274,PtPb,-0.2302864124999999
mp-1066400,NaN3,-0.3890892455349997
mp-1066566,YNiC2,-0.3286315558333328
mp-1066609,VFeCoSi,-0.4731635774999994
mp-10667,SrAgP,-0.7524151695238093
mp-1066781,BrCl,-0.34991588913
mp-1066791,TmTlS2,-1.8165422198958328
mp-10668,Yb(SiAg)2,-0.3198188586666667
mp-1066856,AgO,-0.4467045797916666
mp-10669,Ba3(AlGe)2,-0.4697143185714288
mp-1066975,TmSi,-0.818938431666667
mp-1066989,H2,4.440892098500626e-16
mp-1067,LiAl,-0.1776231033333335
mp-10670,Ca3(AlGe)2,-0.5161157792857141
mp-10671,Sr3(AlGe)2,-0.4971934342857145
mp-1067154,KNO2,-1.3897351869699994
mp-1067235,BaSi,-0.422494785
mp-1067236,CdPt3,-0.1820936325
mp-1067248,TiNi,-0.3942252724999999
mp-1067280,TmTlSe2,-1.3677674895052083
mp-1067587,TaP,-0.9307077192857154
mp-10676,Sc2AlSi2,-0.7082184219999995
mp-10677,CaPAu,-0.8825900378571431
mp-1067743,YbCoC2,-0.1957768379166662
mp-1067744,YTlSe2,-1.3899047470052084
mp-1067793,F2,0.0
mp-1067880,Ga,0.0048171625000001
mp-1067920,Bi2TeO2,-1.1882050024999995
mp-1067925,SrSi3Au,-0.3639739503333324
mp-1067935,Ho2SbO2,-3.015743977500001
mp-1067937,Ho2BiO2,-2.9877210245
mp-1067986,Er2InNi2,-0.543975168
mp-1068,CuS2,-0.5358986479166669
mp-1068002,Ca2MgPt2,-0.8896175546666661
mp-1068024,Ho2InNi2,-0.5363112979999997
mp-1068035,Ca2MgPd2,-0.6784534506666666
mp-1068042,Yb(MgBi)2,-0.5277440606666666
mp-1068048,BaSn3Au,-0.512930842
mp-1068053,Ca2AgPd2,-0.6164224426666663
mp-1068157,Sr2CdPt2,-0.7404805046666659
mp-1068164,Tb2InNi2,-0.5184915099999998
mp-1068167,Sr2Ge2Pb,-0.5314832386666666
mp-1068217,Tb2Ni2Sn,-0.5892196419999998
mp-1068235,SrGe3Ir,-0.5501166033333327
mp-1068239,SrGe3Pt,-0.6246815213333328
mp-1068243,Lu2InNi2,-0.5584472259999999
mp-1068244,Er2AlNi2,-0.5731850979999997
mp-1068256,USi3Ir,-0.563401128999999
mp-1068283,Tm2InNi2,-0.5496796833333335
mp-1068286,Ca2CdPd2,-0.6693851879999997
mp-1068296,Fe(BW)2,-0.4269672173333333
mp-1068300,Ca(FeAs)2,-0.5365069249999997
mp-1068319,Dy2InNi2,-0.5286724620000001
mp-1068331,Y2Ni2Sn,-0.5937977413333329
mp-1068340,CsGeBr3,-1.1299498075862071
mp-1068348,TmAu4,-0.6012117566666667
mp-1068364,CeSi3Os,-0.6569532739999986
mp-1068387,LaGe3Ru,-0.637373250999999
mp-1068431,Yb(ZnSb)2,-0.4560736013333333
mp-1068446,ScAu4,-0.5462018450000002
mp-1068447,BaGe3Pd,-0.5704321239999999
mp-1068489,Pr2Ni2Sn,-0.5035004860000001
mp-1068559,LaCoSi3,-0.6845701809999994
mp-1068587,YSi3Ir,-0.7831598336666659
mp-1068588,TbSi3Ir,-0.793096100999999
mp-1068639,SmSi3Ir,-0.8100913056666655
mp-1068653,CaSi3Ir,-0.6363952779999984
mp-1068661,ZrBRh3,-0.7534260336666663
mp-1068664,ThCoSi3,-0.6996434219999991
mp-1068685,U2PtC2,-0.2901957119999991
mp-1068732,ThSi3Ru,-0.7431242349999991
mp-1068746,TlHPd3,-0.2932985517239999
mp-1068773,LuAu4,-0.6013624459999996
mp-1068775,NdSi3Os,-0.6243268909999997
mp-1068782,SmSi3Os,-0.6248807436666652
mp-1068786,InCo3N,-0.1215262214760002
mp-10688,CeO,-3.241809618125
mp-1068803,YbGa4,-0.4058954573333331
mp-1068827,TbSi3Rh,-0.7836759809999989
mp-1068843,Sm2BiO2,-2.9039250418333338
mp-1068869,ThSi3Ir,-0.8353519210000002
mp-1068891,Sr(CuSn)2,-0.3525655373333336
mp-1068906,CeSi3Ir,-0.8398301759999995
mp-1068908,Ce(GeAu)2,-0.498044393
mp-1068941,K2PdS2,-1.1662631124499998
mp-1068954,Tb2BiO2,-2.9702822885000004
mp-1069,HfSi2,-0.5638183366666661
mp-1069004,U2OsC2,-0.1945419819999997
mp-1069041,NdSi3Ru,-0.6948916509999989
mp-1069044,TbCoSi3,-0.6728312979999999
mp-1069057,Sr(CoSi)2,-0.5290112333333333
mp-1069105,Co(BMo)2,-0.4885109783333334
mp-1069139,SrSi3Ni,-0.4506356483333327
mp-1069147,PrFeGe3,-0.4958516729999999
mp-1069160,U2RuC2,-0.2344317259999996
mp-10692,CoGe,-0.2144129774999994
mp-1069204,NdCoSi3,-0.6615083299999995
mp-1069270,ZnNi3N,-0.225749901476
mp-1069287,Nd2CdCu2,-0.2667389040000003
mp-1069288,MnGa4,-0.1751583679310343
mp-1069297,Tb2AlNi2,-0.5298492580000002
mp-1069330,Nd2AlNi2,-0.4364167380000004
mp-1069375,NdAl3Cu,-0.4716447960000003
mp-10694,ScF3,-4.3201280958925
mp-1069443,CeAl3Cu,-0.4159911829999999
mp-1069461,HoSi3Ir,-0.7713218829999988
mp-10695,ZnS,-1.1431155690624997
mp-1069558,Ce2SeN2,-1.823855877420749
mp-1069561,Dy2BiO2,-2.9799283405
mp-1069594,LaSi3Ru,-0.7214918479999994
mp-1069603,LaAl3Au,-0.6582350029999994
mp-1069604,CaSi3Pt,-0.6456217139999992
mp-1069611,Tm2AlNi2,-0.5837487913333341
mp-1069613,Er2BiO2,-2.9940105485000004
mp-1069695,Sr(MgBi)2,-0.5774045446666669
mp-10697,Sr(GeRh)2,-0.796356011333333
mp-1069706,K2PdSe2,-0.8976506781375001
mp-1069708,BaGe3Ir,-0.5282044279999993
mp-1069712,Ba(CdGe)2,-0.360438714
mp-1069765,SmSi3Rh,-0.8005674316666657
mp-1069771,Rb2PdSe2,-0.8764500259375001
mp-1069790,U2RhC2,-0.3091691320000009
mp-10698,Ba(GeRh)2,-0.7529447679999997
mp-1069801,Ho2AlNi2,-0.5566305920000005
mp-1069809,BaSi3Pt,-0.5958699209999991
mp-1069815,In3Pt2,-0.4638307400000002
mp-1069824,Ca2CdPt2,-0.826238
mp-1069825,PrAl3Cu,-0.4710281350000002
mp-1069882,LaSi3Os,-0.6548833079999994
mp-1069898,LaGe3Os,-0.5277825889999989
mp-10699,LuRh3C,-0.5680466879999997
mp-1069956,Ca(SiRh)2,-0.9837482369999988
mp-1070,CdSe,-0.6267978061718749
mp-1070063,CeAl3Au,-0.5718058569999996
mp-1070099,Ca(GaAs)2,-0.6331655790000006
mp-1070103,Hf2Pt3,-1.1160220060000017
mp-1070124,LaSi3Rh,-0.8447896639999997
mp-1070135,Er2Mg2Ru,-0.3019030173333334
mp-1070137,BaSi3Pd,-0.4806339649999998
mp-1070146,DySi3Ir,-0.782251205
mp-1070151,K(FeS)2,-0.9398522698499996
mp-1070152,Ca(CoSi)2,-0.6215325209999996
mp-1070238,ThSi3Rh,-0.8257039289999994
mp-1070247,BaGe3Rh,-0.5713890200000001
mp-1070253,Ba(CoGe)2,-0.3793714879999996
mp-1070264,La2Ni2I,-0.731290413
mp-1070267,Ba(ZnSi)2,-0.2975462879999998
mp-1070321,NdSi3Rh,-0.8034909330000005
mp-1070356,Rb2Te2Pd,-0.7991216649999998
mp-1070369,NdSi3Ir,-0.8130299789999995
mp-1070375,CsSnCl3,-1.7994483715422072
mp-1070394,CeSi3Rh,-0.8251888379999983
mp-1070400,Ba(NiAs)2,-0.6552932940000005
mp-1070483,Sr(AlGe)2,-0.3965997513333335
mp-1070498,Rb2Te2Pt,-0.799386449
mp-1070507,Lu2AlNi2,-0.6030390179999998
mp-1070510,Y2BiO2,-2.9406298658333343
mp-1070544,CrGa4,-0.1563327179999994
mp-1070572,ThSi3Os,-0.6771760229999984
mp-1070573,LaAl3Cu,-0.4791038209999996
mp-1070580,Al3Ru2,-0.7046405100000008
mp-1070583,ErAu4,-0.5976186159999998
mp-1070599,CsYbCl3,-2.6893057168755403
mp-10706,ZrRu3C,-0.3268501959999995
mp-1070601,La2BiO2,-2.983599560500001
mp-1070646,Dy2AlNi2,-0.5418018580000009
mp-1070662,Gd2BiO2,-2.9214524145000014
mp-1070713,InNi3N,-0.1599589104760007
mp-1070753,CeCoSi3,-0.7072486390000001
mp-1070755,Y2GaNi2,-0.5583560633333334
mp-1070761,Ni(BW)2,-0.4353977833333345
mp-1070806,BaTi2Sb2O,-1.4894308602083328
mp-1070837,TbMgCo4,-0.1421144555555559
mp-1070844,ThPt2,-1.2336300216666665
mp-1070852,YbHCl,-1.8319449878488887
mp-1070857,NdSiNi4,-0.5482295675000005
mp-1070859,TbSiNi4,-0.6087643208333328
mp-1070869,ZrCu4Ag,-0.1502336638888894
mp-1070916,AlBW,-0.304670696111111
mp-1070917,Nd2Co2SiC,-0.4570985241666664
mp-1070925,LaPRh,-1.275066137857144
mp-1071028,LaAsIr,-1.0418832733333332
mp-1071036,TbScSb,-0.859880978333333
mp-1071051,NdMgCu4,-0.1936034555555554
mp-1071078,NiSe2,-0.240417889895833
mp-10711,VSi2,-0.485855565555555
mp-1071127,Ca2GePd3,-0.796093158333333
mp-1071163,TiO,-2.915823635625
mp-10712,ScRh3C,-0.5106697989999986
mp-1071208,LaAl2BOs2,-0.5349873938888893
mp-1071216,Pr2Co2SiC,-0.4358468141666662
mp-1071252,LaGa2Rh3,-0.8273321208333329
mp-1071260,LaSnAu,-0.8737542333333336
mp-10714,TmRh3C,-0.5560445906666658
mp-1071422,CeAg2,-0.1799380655555555
mp-1071448,CeGaCo,-0.560771791666666
mp-1071453,Nd2Bi,-0.6700055516666671
mp-1071459,GdZrSb,-0.8174120433333343
mp-1071468,TbMgSn,-0.5796607427777776
mp-1071478,CeInPt4,-0.8088125841666667
mp-1071492,ErSnGe,-0.6075298399999998
mp-1071505,Sr2FeO3,-2.6518820070138887
mp-1071506,Gd2AlNi2,-0.5155288659999997
mp-1071536,USnAu,-0.2386350216666658
mp-1071541,YbBr2,-2.1009286388888886
mp-1071555,YbAgBi,-0.5900836933333332
mp-1071567,GdSn2,-0.6159082883333333
mp-10716,YbRh3C,-0.4298795513333331
mp-1071627,LaSiNi4,-0.5422636750000009
mp-1071645,YInCu4,-0.2706506738888888
mp-1071690,Be5Co,-0.1918563800000002
mp-1071694,TmZnGa,-0.5526465461111112
mp-1071720,ScZnPd,-0.7237467516666664
mp-1071731,HoSiNi4,-0.6190397141666667
mp-1071737,YZnGa,-0.5866553411111113
mp-1071811,DyCdNi4,-0.3546259383333338
mp-1071835,DyCu2,-0.2697786166666667
mp-1071848,Pr2Sb,-0.8509095733333325
mp-1071862,YAlZn,-0.4742607811111116
mp-1071863,PrMgSn,-0.6093646544444441
mp-1071889,ThGeSe,-1.2923338991145836
mp-1071890,NdInPt4,-0.7891581216666665
mp-1071904,PrCu2,-0.1929356283333329
mp-1071955,AlPS4,-1.031276358511904
mp-1072024,TmAlGe,-0.6302553727777779
mp-1072033,DyCu4Ag,-0.2276440922222219
mp-1072037,HoCuGe,-0.6809436233333338
mp-1072051,TbB2Rh3,-0.7138559144444431
mp-1072082,YbFeSi,-0.4909014072222219
mp-1072086,TaS2,-1.4883865004166663
mp-1072087,LaAu2,-0.8058629566666665
mp-10721,Ti2C,-0.6439402433333328
mp-1072104,GeO2,-2.083292537499999
mp-1072113,NbSe2,-0.8379152965624996
mp-1072114,HoOF,-4.295854065813334
mp-1072182,HoB2Ir3,-0.6954550194444439
mp-1072193,ErOF,-4.30385203748
mp-1072208,DyOF,-4.288382512480001
mp-1072255,ScNi4Au,-0.398342119166666
mp-1072259,LuSn2,-0.511756853333333
mp-1072264,TbCu4Ag,-0.2231475972222222
mp-1072345,TmMgSn,-0.5227852455555558
mp-1072381,LuNi4Au,-0.4164878249999996
mp-1072391,Pr2SiRh3,-0.828326155833332
mp-1072399,Be5Pt,-0.4616300225000002
mp-1072429,Ga2Ru,-0.4133760749999998
mp-1072437,YSiNi4,-0.6041991713888896
mp-1072444,UPt5,-0.5347712449999994
mp-1072537,CeSiNi4,-0.5880183700000003
mp-1072553,TmCdNi4,-0.3705711722222228
mp-1072580,CeSiPt,-1.107899326666666
mp-1072589,Cu2GeS3,-0.6526635648958337
mp-1072598,ErCdNi4,-0.365868473333333
mp-1072619,PrAg2,-0.2775048322222222
mp-1072660,VAs2,-0.3972639733333321
mp-1072712,NbS2,-1.452982730416667
mp-1072737,NdAg2,-0.2796717738888894
mp-1072744,Hf2Bi,-0.1097691316666669
mp-1072798,ErAlZn,-0.4495595333333331
mp-1072856,PrZn2,-0.3596677750000001
mp-1072865,HoSn2,-0.5877415950000001
mp-1072888,TmGeAu,-0.8036073594444441
mp-1072922,TbSn2,-0.6162249366666668
mp-1072956,MgF2,-3.847354745237778
mp-1073,CaCd,-0.3655137875000001
mp-10731,Ba2PrSbO6,-2.9986432037500004
mp-10736,Ba3N,-0.4065695605949999
mp-10738,SmPPt,-1.3422981906349207
mp-10739,TiPRu,-1.0171924561904748
mp-1074,RbSi,-0.0420770118749995
mp-10740,Pa,0.0
mp-10746,Mg2Cu3Si,-0.2357933136111108
mp-10748,TaCu3S4,-0.9498701940625
mp-10749,SrCuSb,-0.7022659205555554
mp-10755,TiFeSb,-0.3679895216666662
mp-10759,GeSe,-0.2091028561718753
mp-1075922,Sr7CaTi8O24,-3.5527342212916664
mp-1075943,Ba3Sr5Ti8O24,-3.531213404333333
mp-1076,KB6,-0.0252814275714285
mp-1076090,BaSr7(Fe2O5)4,-2.4699138547685178
mp-10763,KHgSb,-0.3608970743333334
mp-1076413,K5Na3Ta7NbO24,-3.0473759265
mp-1076445,Sr8MnFe7O24,-2.348456213598713
mp-1076510,K5Na3Ta8O24,-3.07799206175
mp-10767,CsK2Yb(PO4)2,-2.8039890041243254
mp-1076711,SrCuO3,-1.7471770100833333
mp-1076933,GdAl3Cu,-0.4497778660000001
mp-1076936,ThSiSe,-1.202028392447917
mp-1076951,CeNiGe,-0.740287696666666
mp-1076961,Er2GeRh3,-0.9294173433333318
mp-1076964,GdTe2,-1.2188634833333332
mp-1076970,LaScSb,-0.8805710833333341
mp-1076973,TiGeSb,-0.4265892033333334
mp-1076977,DyAlGe,-0.6569813866666662
mp-1076987,TaNiB,-0.6167790344444436
mp-1076993,Gd2InNi2,-0.507502774000001
mp-1077,B2Ru,-0.2858929938888887
mp-1077023,TiCu2,-0.1000647166666664
mp-1077032,CeZn2,-0.2894284316666666
mp-1077034,NdMgSn,-0.6090049161111111
mp-1077056,GdAlGe,-0.6976161783333339
mp-1077063,La2Bi,-0.7615518133333339
mp-1077082,TbCdNi4,-0.3481826366666674
mp-1077088,PrCdNi4,-0.2625454908333336
mp-1077095,LuCdNi4,-0.3739193316666671
mp-1077097,YbZnPb,-0.4293029772222224
mp-10771,Dy4(SiS4)3,-1.8260359556578951
mp-1077102,TmSn2,-0.5508220061111118
mp-1077107,HgO,-0.6437946756249998
mp-1077109,SmSiPt,-1.1464522577777778
mp-1077116,NbP2,-0.6756880890476195
mp-1077126,DySiNi4,-0.6140381075000008
mp-1077133,GdCoSi,-0.7326449366666665
mp-1077154,SmCu2,-0.2319467511111111
mp-1077165,YbCu4Au,-0.3425257361111106
mp-1077167,TmCuSn,-0.5328585377777783
mp-1077179,As2W,-0.0650725116666658
mp-1077191,Li2Tl,-0.2361065777777777
mp-1077201,UAsP,-0.7402578078571421
mp-1077209,TmCu2,-0.2890397311111113
mp-1077210,LuGa2,-0.5754213583333326
mp-1077226,YbSnHg,-0.5685616338888888
mp-1077228,PrInPt4,-0.7819837191666661
mp-1077244,GdZnGa,-0.5650200033333329
mp-1077251,Er2SiRh3,-1.007860410833333
mp-1077263,TiS2,-1.7107715104166663
mp-1077270,GdB2Ir3,-0.6821547461111118
mp-1077279,DyNi4Au,-0.3872228250000002
mp-1077290,ErCu4Au,-0.3432724766666659
mp-1077297,Zr2Ir,-0.6683071250000007
mp-1077298,TbMgNi,-0.3117817744444444
mp-1077322,BaAg2,-0.2870391355555555
mp-1077329,GdPPd,-1.258218636190475
mp-1077332,HoCdNi4,-0.3606458866666671
mp-1077340,HoNi4Au,-0.3943100066666674
mp-1077347,UPt4Au,-0.5375612399999999
mp-1077349,ThGeTe,-1.0081246700000002
mp-1077351,ZrGaCu,-0.4372789566666656
mp-1077361,BaAsAu,-0.9310419416666668
mp-1077367,Ce2Bi,-0.5479647099999992
mp-1077374,ThSiS,-1.5704031393750004
mp-1077379,NdCdNi4,-0.2824457066666668
mp-1077380,SmInPt4,-0.7974460872222225
mp-1077383,CsAuS,-0.9978164553520118