material_id,pretty_formula,formation_energy_per_atom
mp-1184717,Ho2CuPt,-0.7799388874999993
mp-1184723,HfZr3,0.0035213149999986
mp-1184724,Ho2CoRu,-0.2796476362499991
mp-1184732,GdYIr2,-0.774345968333332
mp-1184737,Ho2ReC2,-0.4354943654999985
mp-1184738,HoErIn2,-0.4379344500000002
mp-1184740,HoErHg2,-0.4771761600000004
mp-1184742,GdZrRu2,-0.4343962599999997
mp-1184754,K2RbBi,-0.3431192258750002
mp-1184762,GdErIn2,-0.45494039
mp-1184766,Hg,0.000671958
mp-1184768,IrRh3,-0.0074298549999989
mp-1184769,HoErIr2,-0.8710205325000002
mp-1184772,Hf3Pb,-0.0177192900000004
mp-1184787,HoErMg2,-0.0695531066666665
mp-1184789,InHg3,0.00454894625
mp-1184790,GdErRu2,-0.3176474349999996
mp-1184794,IrRh3,-0.0169212299999985
mp-1184816,HoMgCd2,-0.3007538033333332
mp-1184818,HoMgAg2,-0.311082565
mp-1184821,HoRh2Pb,-0.5803076374999998
mp-1184822,HoZrRu2,-0.5203612849999999
mp-1184828,HoTmIn2,-0.4299554633333331
mp-1184831,HoTmRu2,-0.3872461733333336
mp-1184832,HoSnAu2,-0.6924359074999993
mp-1184835,HoTmAg2,-0.3366993525000001
mp-1184838,HoLuIn2,-0.4147924924999993
mp-1184846,HoThRu2,-0.4457199825000009
mp-1184847,HoLuIr2,-0.9086643325
mp-1184850,HoTmRh2,-0.9435193408333332
mp-1184860,HoMg2,-0.0610813588888886
mp-1184865,HoScZn2,-0.35546050125
mp-1184867,HoTmHg2,-0.4766331408333335
mp-1184869,HoLuHg2,-0.4730714199999997
mp-1184870,InAgAu2,-0.1107251533333331
mp-1184872,HoTmCd2,-0.3178669808333332
mp-1184881,HoMg2,-0.0603816655555554
mp-1184891,HoLuCu2,-0.2773231149999988
mp-1184899,HoTm3,0.0078532662499997
mp-1184905,K,0.0
mp-1184921,In3Pb,-0.001776875
mp-1184928,IF7,-1.7132612179162503
mp-1184930,HoLu3,0.0025071737499997
mp-1184955,Li2TlCd,-0.2539905808333333
mp-1184956,Li2TlHg,-0.3034544883333334
mp-1184958,Li2TlIn,-0.2450869433333329
mp-1184966,Li2CdPt,-0.4577412483333329
mp-1184970,Li2HgBi,-0.3798073333333334
mp-1184972,Li2InBi,-0.3567757683333332
mp-1184976,Li2CdAg,-0.2386788766666669
mp-1184977,Li2AgBi,-0.3521882691666667
mp-1184978,Li2InHg,-0.3214907758333336
mp-1184983,Li2CdBi,-0.3581890533333332
mp-1184985,Li2InPb,-0.2613459733333334
mp-1184989,LaDyTl2,-0.3834004062500002
mp-1184997,KRbAu2,-0.270834110125
mp-1184999,LaMgAu2,-0.7381569695833332
mp-1185010,Li2CaTl,-0.2498983045833336
mp-1185012,LaErTl2,-0.36977501375
mp-1185013,LaYbPt2,-1.1296688404166666
mp-1185020,LaHoTl2,-0.3766747537500001
mp-1185025,LaNdTl2,-0.4090632812500003
mp-1185027,LaYbAu2,-0.9013119704166668
mp-1185035,LaErIn2,-0.4686681862500004
mp-1185038,LaSmTl2,-0.4037505445833331
mp-1185046,LaTmTl2,-0.3608076220833336
mp-1185050,La2TlAg,-0.3417502483333332
mp-1185055,Hf2InNi2,-0.5017883940000004
mp-1185058,LaPrMg2,-0.1090113166666664
mp-1185062,La2MgCd,-0.2151018733333338
mp-1185064,LaYbMg2,-0.0939554195833332
mp-1185068,LaLuIn2,-0.4464001237500001
mp-1185069,LaLuTl2,-0.3454736937499998
mp-1185071,LaNdMg2,-0.1054222529166666
mp-1185076,LaHoIn2,-0.4725804512499998
mp-1185078,LaYbPd2,-0.8398117704166665
mp-1185086,LaYbTl2,-0.4552553029166666
mp-1185089,LaPrTl2,-0.4105666449999998
mp-11851,ErCoSn,-0.496760335
mp-1185100,La2AgHg,-0.3900639433333333
mp-1185130,LaTmMg2,-0.08621770375
mp-1185134,LaYbCu2,-0.2240279554166666
mp-1185136,LaYMg2,-0.1027020312499997
mp-1185138,LaPrZn2,-0.3113591274999998
mp-1185142,Dy4Ga21Ni10,-0.5096401974285714
mp-1185164,HoGePd,-0.9887437577777785
mp-1185167,LaP5,-0.5660292717261903
mp-1185179,Li10Co4O9,-1.871984522518116
mp-1185193,La2CdIn,-0.4240244875000001
mp-1185194,La2TlIn,-0.4604952300000002
mp-1185195,La2InAg,-0.3771374583333338
mp-11852,NdCu2,-0.2017176383333332
mp-1185200,Li3Au,-0.4033312850000001
mp-1185207,LiCdHg2,-0.2089964891666665
mp-1185209,Li2ZnSi,-0.2856190545833335
mp-1185210,LaSbTe,-1.2755278941666663
mp-1185212,LiCd2Ni,-0.1475570866666671
mp-1185233,Li2YIn,-0.3065711241666666
mp-1185238,LiTiPd2,-0.5359762341666663
mp-1185241,LiY2Tl,-0.2349167558333329
mp-1185250,ErMg149,-0.0291250610444442
mp-1185260,LiNi2Sb,-0.3092884954166663
mp-1185265,Li3Sn,-0.3894731600000001
mp-1185300,LiAg3,-0.1423701666666668
mp-1185301,LiF,-3.1737374264283336
mp-1185304,LiAlZn2,-0.1397502516666664
mp-1185305,LiGePt2,-0.5363921116666663
mp-1185306,LiCrRh2,-0.1406589916666663
mp-1185307,LiAl2Cu,-0.1865856891666664
mp-1185312,LiCu3,-0.0295808791666667
mp-1185314,LiCd2Cu,-0.1461220366666664
mp-1185315,Li3La3(MoO6)2,-2.942940807250001
mp-1185316,LiGa2Co,-0.2970082354166665
mp-1185317,LiBe2Pt,-0.5095317966666668
mp-1185319,LiCl,-2.127263874963333
mp-1185334,LiCeHg2,-0.3546023404166663
mp-1185338,LiCu3,-0.0280964791666669
mp-1185342,LiAg3,-0.1404169229166667
mp-1185354,LiGd2Os,-0.1881074766666675
mp-1185358,LiMgCd2,-0.1908125199999999
mp-1185359,LiMg2Cd,-0.1664874608333331
mp-1185363,LiMgHg2,-0.3117096374999997
mp-1185365,LiMg2Au,-0.4704803883333333
mp-1185367,LiInHg2,-0.1843126291666668
mp-1185368,LiMgIn2,-0.1732946699999997
mp-1185369,LiLuIn2,-0.3400386416666667
mp-1185370,LiMg,-0.0597119874999998
mp-1185373,LiLu2Co,-0.1433195229166664
mp-1185374,LiMgPb2,-0.17730844
mp-1185375,LiLaAu2,-0.6697057679166667
mp-1185376,LiLaTl2,-0.3594219654166668
mp-1185378,LiGd2Tl,-0.2234862016666667
mp-1185380,LiMg,-0.0516712399999998
mp-1185381,LiIn2Ni,-0.2162134616666664
mp-1185385,LiLuTl2,-0.2786160516666665
mp-1185391,LiPr2Al,-0.1877689616666664
mp-1185392,LiGd2Al,-0.2181916191666655
mp-1185393,LiLuRh2,-0.6032887466666663
mp-1185394,LiGd2Ga,-0.3265964666666665
mp-11854,Er5Ge3,-0.8047095043749994
mp-1185403,LiPr2Ga,-0.2910511591666664
mp-1185405,LiLu2Re,0.0037911245833335
mp-1185408,LiPrZn2,-0.2613773029166668
mp-1185418,LiZnPt2,-0.5868478629166667
mp-1185419,LiSiPt2,-0.707853302916666
mp-1185421,LiZnNi2,-0.1396961804166672
mp-1185422,LiZn2Ag,-0.1771285324999998
mp-1185428,LiTi2Ir,-0.496728216666666
mp-1185434,LiSnPt2,-0.5929265466666669
mp-1185437,LiThHg2,-0.2890758616666664
mp-1185439,LiYbTl2,-0.3530805458333335
mp-1185442,Lu2CuPd,-0.6432577725000002
mp-1185443,LiYbPb2,-0.399052638333333
mp-1185446,Lu2TlIn,-0.3174599074999999
mp-1185452,Lu2CuAu,-0.5923860825
mp-1185454,LiScIn2,-0.3457282979166662
mp-1185456,Lu2PdAu,-0.9343276649999996
mp-1185457,Lu2CoCu,-0.2713476662499996
mp-1185458,LiSm2Al,-0.1992423858333332
mp-1185462,LiThRh2,-0.6384748166666663
mp-1185467,Lu2CoIr,-0.6472728187500003
mp-1185478,Lu3In,-0.2397913424999993
mp-1185479,Lu3Sc,0.0086759387500006
mp-1185496,LuHfRh2,-0.9408673400000004
mp-1185500,LuMgAg2,-0.3061366724999996
mp-1185502,LuMg3,-0.0310570325000001
mp-1185504,LuTe,-1.1296825100000003
mp-1185505,LuMnRh2,-0.6105302849137928
mp-1185506,LuScHg2,-0.44367067625
mp-1185507,LuAgHg2,-0.2878994783333333
mp-1185508,LuScCu2,-0.2753311262499993
mp-1185509,LuAlCu2,-0.3739799049999996
mp-1185511,LuHfCo2,-0.3341869900000001
mp-1185513,HfMg149,-0.022836033311111
mp-1185515,LuMg2Sc,-0.0352563154166669
mp-1185521,Mg(BH4)2,-0.326296449450909
mp-1185522,Lu3Tl,-0.1429976024999995
mp-1185524,Li95Mn16O64,-2.05277039361815
mp-1185530,LuZr3,0.0080886437499989
mp-1185531,LiNd6B3O13F2,-3.605457340011867
mp-1185534,HoMg149,-0.0290664836444443
mp-1185536,KMg149,-0.0197956734644443
mp-1185537,Cs2HgTe,-0.7552116964655173
mp-1185546,CsRb2Bi,-0.3069981182327586
mp-1185549,Mg149Br,-0.0294306230444444
mp-1185555,Mg149Ru,-0.027216080711111
mp-1185556,Mg149H,-0.0181011355685776
mp-1185557,Mg149Bi,-0.0308394455777776
mp-1185559,CsRb3,0.0065231923922414
mp-1185565,Mg149Mo,-0.0173596376444442
mp-1185568,Mg149Pt,-0.0402122601777775
mp-1185570,Mg149Pb,-0.0322830173777776
mp-1185571,CsAs(HO2)2,-1.764618166896379
mp-1185573,Mg149Au,-0.0374434214444443
mp-1185575,Mg149Ir,-0.0335850957111108
mp-1185576,CsYbI3,-1.62261222141954
mp-1185577,CsHg3,-0.2257676282327586
mp-1185578,Mg149S,-0.0359307883319441
mp-1185579,Mg149Hg,-0.0340706478444443
mp-1185580,Mg149Pd,-0.0376269928444442
mp-1185581,Mg149Cd,-0.0325577942444442
mp-1185582,Mg149Rh,-0.0349938840444442
mp-1185583,Mg149Re,-0.0176856712111109
mp-1185584,Mg149Cl,-0.0359120745328442
mp-1185585,Mg149Cr,-0.0226949276444444
mp-1185586,Mg149Be,-0.0217716326777777
mp-1185589,Mg149Nb,-0.0198132288444442
mp-1185590,Mg149I,-0.0249421911444443
mp-1185591,Mg149Ag,-0.032327374
mp-1185592,Mg149Fe,-0.0177684544444444
mp-1185593,Mg149P,-0.0281415699015872
mp-1185594,Mg149In,-0.033366872711111
mp-1185595,LuMg149,-0.0293864275777775
mp-1185596,Mg149Al,-0.0305960837777776
mp-1185597,Mg149Ga,-0.0324239280444442
mp-1185599,Mg149Ni,-0.0277582172444442
mp-1185600,Mg149Os,-0.023436927311111
mp-1185602,La2GaAg,-0.4153342683333334
mp-1185603,LaSmMg2,-0.0982277712499999
mp-1185616,Mn2CrSi,-0.3219104310775869
mp-1185618,MgVRh2,-0.4301057508333326
mp-1185619,MgZn2Rh,-0.3458945758333334
mp-1185620,MgVRu2,-0.181287895833333
mp-1185621,MgZn2Ir,-0.2832281533333334
mp-1185625,MgZrPt2,-0.9605328208333336
mp-1185627,Mg149Mn,-0.0151991966421455
mp-1185628,Mg149Sb,-0.0319958555444443
mp-1185631,Mg149Sc,-0.0295604286777775
mp-1185632,Mg149Se,-0.0331352683934026
mp-1185634,Mg149Si,-0.0279747086111109
mp-1185635,Mg149Tl,-0.0319807967111108
mp-1185636,Mg149Tc,-0.0220361720444443
mp-1185637,Mg149Sn,-0.0339313069777777
mp-1185638,Mg149Te,-0.0313467335111109
mp-1185639,Mg149Ti,-0.0237434639777776
mp-1185640,Mg149Ta,-0.0167850633777777
mp-1185641,Mg149V,-0.0218498585777776
mp-1185642,Mg149Zn,-0.0310866261444444
mp-1185655,Mg149Zr,-0.0246859995777775
mp-1185750,Mg2AgHg,-0.23598308
mp-1185760,Mg2HgAu,-0.4113631491666663
mp-1185768,Mg2IrPt,-0.5853431266666664
mp-1185770,Mg2NiRh,-0.3552060191666664
mp-1185771,Mg2Pd,-0.5284560755555555
mp-1185774,Mg2Sc,-0.036326693888889
mp-1185784,Mg3Hg,-0.15871342375
mp-1185787,Mg3Pb,-0.0399225762499999
mp-1185790,Mg3Sc,-0.0416829062499997
mp-1185791,Mg2Ni,-0.1743615338888891
mp-1185821,Mg2NiH4,-0.3235966171280954
mp-1185824,MgAgAu2,-0.3470974266666671
mp-1185833,MgAg5,-0.1065083300000001
mp-1185836,MgAg3,-0.1610786408333337
mp-1185839,MgAg5,-0.10438149
mp-1185844,MgAu2,-0.4713840044444441
mp-1185848,MgAu3,-0.3969277158333333
mp-1185850,MgCdPd2,-0.581611665833333
mp-1185861,MgGaPt2,-0.7112748408333331
mp-1185884,MgHgPd2,-0.4776542708333333
mp-1185892,MgMnPd2,-0.4782079257471263
mp-11859,La(SiAu)2,-0.6564182289999998
mp-1185923,MgPd2Au,-0.5127581508333332
mp-1185935,Mn3Os,-0.0050893909913796
mp-1185937,MgPb,-0.0354041216666667
mp-1185942,MgS,-1.752457215729167
mp-1185943,MgRu2W,-0.1555099283333341
mp-1185944,MgSbRh2,-0.5351240895833334
mp-1185953,MgS2,-1.2683208098611114
mp-1185957,MgScIr2,-0.7140088720833333
mp-1185958,MgScPt2,-1.0645213895833328
mp-1185959,MgS2,-1.2731925965277775
mp-1185960,MgScAu2,-0.7506178270833326
mp-1185961,MgScZn2,-0.3160643070833329
mp-1185964,MgSc2Hg,-0.2401296208333332
mp-1185970,Mn3Co,-0.0163049372413794
mp-1185980,MgSnRu2,-0.1355886283333331
mp-1185986,MnBeIr2,-0.3619974686637928
mp-1186,ZrS2,-1.9559122120833337
mp-1186001,MnZnPd2,-0.3998449661637933
mp-1186002,MnTc2Sb,-0.0155215786637921
mp-1186003,MnZnAu2,-0.1447082261637939
mp-1186005,MnZnNi2,-0.1667430461637931
mp-1186006,MnV2Ru,-0.2544804674137939
mp-1186015,MnZnPt2,-0.4461443661637938
mp-1186024,Na3Cd,-0.0452030262499998
mp-1186026,MnTc2Ge,-0.1689361974137924
mp-1186040,Na,0.0075976187500002
mp-1186060,MnOs3,-0.031842734913793
mp-1186067,Na3Pd,-0.0250736112499998
mp-1186069,Na(MoSe)3,-0.6303466981473207
mp-1186074,Na3Pd,-0.02571763125
mp-1186088,Na3Tl,-0.0824621999999999
mp-1186102,NaAg2Sn,-0.1141298704166668
mp-1186117,NiPt3,-0.0540605174999999
mp-1186122,NaCd2Rh,-0.0765351112500001
mp-1186142,NaHg3,-0.1892492062499999
mp-1186152,NaHg3,-0.1964778287499999
mp-1186155,NaCeHg2,-0.2748877424999998
mp-1186158,NaIn3,-0.0733637437500003
mp-1186168,NaGdTl2,-0.24924817625
mp-1186177,NaTbTl2,-0.2349032337500003
mp-1186185,NaTl2In,-0.0815405462499998
mp-1186189,NaTl3,-0.0837876037499998
mp-1186200,Nb2CrRu,-0.1365253650000006
mp-1186201,NaYbPb2,-0.3583996604166666
mp-1186205,Nb2MoOs,-0.2432068499999999
mp-1186206,Nb2MoRu,-0.2249057600000004
mp-1186207,Nb2ReRu,-0.2223867287500009
mp-1186208,Nb2ReTc,-0.2978109512500015
mp-1186209,Nb2TcRu,-0.2554905600000001
mp-1186210,Nb2TcOs,-0.2535004750000009
mp-1186218,Nb3Os,-0.2331500999999995
mp-1186222,NbGaOs2,-0.2038345825000007
mp-1186224,NbGaTc2,-0.2135248075000007
mp-1186231,NbIr3,-0.6120975975
mp-1186232,NbTc2Sn,-0.1687370900000004
mp-1186233,NbSnRu2,-0.2273873799999997
mp-1186236,Nd2CdAg,-0.2831899808333333
mp-1186251,Nd2Co3Ge5,-0.5805497899999998
mp-1186254,Nd2TlCd,-0.3554999049999998
mp-1186255,Nd2TlHg,-0.4259803524999999
mp-1186256,Nd2TlAg,-0.323409078333333
mp-1186261,Nd2TlIn,-0.4364669574999995
mp-1186262,Nd3Dy,0.0086753999999995
mp-1186271,NaMg149,-0.0272048525444444
mp-1186275,Nd3Lu,0.0073767099999999
mp-1186279,Nd2InAg,-0.366171983333333
mp-1186295,NdCdAg2,-0.2866517716666665
mp-1186296,NdCd3,-0.3189457100000004
mp-1186297,NdDyZn2,-0.3251022125
mp-1186298,NdCdHg2,-0.4173181449999998
mp-1186303,NdCd3,-0.3156205400000003
mp-1186304,NdAs2Au,-0.7628415143749994
mp-1186307,NdHoMg2,-0.0939806416666666
mp-1186308,NdHgAu2,-0.5860588450000002
mp-1186309,NdHoTl2,-0.3549194349999998
mp-1186313,NdHoZn2,-0.3252100799999997
mp-1186314,NdHg3,-0.3985832337499999
mp-1186317,NdPd2Pb,-0.6408907050000003
mp-1186323,NdSm3,0.0095810549999999
mp-1186328,NdSmMg2,-0.0994898924999998
mp-1186330,NdSmTl2,-0.3879579383333333
mp-1186335,NdYMg2,-0.1133913099999999
mp-1186336,NdYZn2,-0.3360406508333331
mp-1186338,NdTmIn2,-0.4488945758333331
mp-1186343,NdGdHg2,-0.4923654499999994
mp-1186350,NiIr3,-0.0065395949999995
mp-1186351,NdSmIn2,-0.4691205108333336
mp-1186359,NdDyIn2,-0.4707851600000001
mp-1186374,Os3W,-0.0584808975000008
mp-1186378,NdGdIr2,-0.6483417150000008
mp-1186379,NdYIn2,-0.4900575108333331
mp-1186427,Pd,0.0033261150000001
mp-1186429,Pm,0.0095581025000006
mp-1186437,Pd3W,-0.0414020424999996
mp-1186440,Pm,0.0026263158333339
mp-1186447,PdAu3,-0.0699368087499996
mp-1186450,PdPt3,-0.0194753074999995
mp-1186469,PrPbAu2,-0.6122374262500001
mp-1186507,PrNi9Ge4,-0.4053860114285714
mp-1186510,PrSmIn2,-0.4676690545833333
mp-1186570,PrDyIn2,-0.4680704612499999
mp-1186599,NdMg149,-0.0276117689777775
mp-1186689,Pr2MgAl,-0.2458655833333334
mp-1186694,Pr2ZnGa,-0.4332827387500004
mp-1186695,Pr2TlHg,-0.4270628849999998
mp-1186697,Pr2TlIn,-0.4375875975000003
mp-1186705,Pr3Dy,0.0095430237500009
mp-1186715,Pr2SiC(NO2)2,-2.6720721664760005
mp-1186729,Pr2MgIn,-0.3265742608333335
mp-1186734,Pr3Y,0.0051604479166673
mp-1186749,PrHoIn2,-0.4616953262500001
mp-1186751,PrHoTl2,-0.3580812412499998
mp-1186761,Ta2MnRe,-0.3229803211637936
mp-1186763,Ta2MoW,-0.1467622475000016
mp-1186766,Ta2MoIr,-0.3899889699999992
mp-1186767,Ta2NbRe,-0.244740321250001
mp-1186772,Ta2CrRe,-0.2505484237499988
mp-1186776,SrTl3,-0.2615038279166666
mp-1186786,PrAs2Au,-0.7588632059374998
mp-1186832,PrNdIn2,-0.4808748962499996
mp-1186853,Rb,0.0074915804999999
mp-1186878,Ta2Mo2O11,-2.665514796916667
mp-1186887,RbNa2Bi,-0.3499342268750001
mp-11869,HfSnPd,-0.7263948733333336
mp-1186901,Re,0.0017813575000005
mp-1186902,Re3Ir,-0.1058355362499998
mp-1186915,ReTc,-0.0034681324999983
mp-1186921,Rb2Ga2Ge3O10,-2.2226569601470594
mp-1186923,Re3Rh,-0.1575687299999995
mp-1186926,Ru3Rh,0.0070861699999991
mp-1186932,Sc2AgPt,-0.7821336683333326
mp-1186933,Sc2CdGa,-0.4439091600000004
mp-1186935,Sc2CdOs,-0.3334640824999999
mp-1186937,Sc2CdHg,-0.3623176125
mp-1186939,Sc2CoPt,-0.7994199887499995
mp-1186941,Sc2CuPd,-0.5935207025000002
mp-1186943,Sc2GaPd,-0.7505238324999999
mp-1186945,Sc2CuNi,-0.3904447175000003
mp-1186950,Sc2InHg,-0.4201667599999998
mp-1186954,Sc2IrOs,-0.7138335075000004
mp-1186957,Sc2OsRh,-0.7066876749999995
mp-1186959,Sc2TlZn,-0.3073082337499997
mp-1186961,Sc2TlHg,-0.3482736274999998
mp-1186966,Sc2ZnIn,-0.3980139012499997
mp-1186967,Sc3Hg,-0.2175730837500005
mp-1186971,RbPrP3HO10,-2.858077329958393
mp-1186974,Sc3Tl,-0.2086095437499997
mp-1186976,Sc3Sn,-0.4552268912499997
mp-1186978,ScCdPt2,-0.8198917237499996
mp-1186984,ScBr3,-1.6682503762499996
mp-1186991,ScI3,-1.1891985112499994
mp-1186994,PrMg149,-0.0271990655444443
mp-1187,ThIr2,-0.8319713349999999
mp-11870,Hg2Rh,-0.0048453733333332
mp-1187000,Sm2GaAg,-0.4274609850000002
mp-1187001,Sm2TlIn,-0.4310464466666666
mp-1187002,Sm2MgCd,-0.2096556275000001
mp-1187003,Sm2IrAu,-0.7278989066666659
mp-1187025,SmAlO3,-3.701968378416666
mp-1187026,SmYHg2,-0.4841871666666666
mp-1187031,SmTmIn2,-0.4493914841666666
mp-1187042,SmYRh2,-0.7886860891666663
mp-1187051,Sm2CdIn,-0.4170427541666668
mp-1187064,Th3In,-0.1640832375000007
mp-1187073,Sr,0.0
mp-1187077,SnRh3,-0.2813572949999994
mp-1187079,Sr2CdHg,-0.4226215758333334
mp-1187087,Sr2LiCd,-0.1696908549999998
mp-1187090,Sr2LiRh,-0.0974070399999997
mp-1187091,Sr2TlZn,-0.3123237045833333
mp-1187092,Sr2MgTl,-0.2539775116666665
mp-1187099,Sr2TlHg,-0.4871993283333333
mp-11871,HoNi,-0.4684068175000009
mp-1187105,Sr3Ca,0.0089370962499999
mp-1187121,Sr2MgIn,-0.2638124841666664
mp-1187124,Sr2TlPb,-0.4857836133333331
mp-1187125,Sr2TlIn,-0.4248217333333333
mp-1187172,SrHN,-0.8518725958888886
mp-1187179,Sm2MgIn,-0.3314229275000002
mp-1187185,SrMgHg2,-0.3841475399999998
mp-1187186,SrLaHg2,-0.5271589104166665
mp-1187194,Ta2TiRe,-0.2270094662499993
mp-1187195,Ta2VIr,-0.3776078224999999
mp-1187196,Ta3Ir,-0.3208964299999994
mp-1187197,Ta3Os,-0.2637558625
mp-1187198,SrMg2,-0.0946727011111111
mp-1187200,Ta2TcRu,-0.4127438300000001
mp-1187201,Ta2VRe,-0.262050748750001
mp-1187203,Ta3Re,-0.2181264337499993
mp-1187206,Ta3W,-0.0428050049999981
mp-1187208,Ta2ReW,-0.2779120387500011
mp-1187210,Ta2TcOs,-0.4046472975000004
mp-1187211,Ta2RuW,-0.2818952550000002
mp-1187212,Ta2ReTc,-0.4641632712500012
mp-1187213,Ta2ReOs,-0.3504918587500008
mp-1187216,SrHg2Pb,-0.4075543741666665
mp-1187225,TaFe2Ge,-0.2218038799999995
mp-1187231,Sr2ZnIn,-0.3085809070833334
mp-1187233,TaGeRu2,-0.30918636
mp-1187240,Sr2InHg,-0.4842082558333331
mp-1187242,TaNbRe2,-0.3425825774999982
mp-1187243,TaOs3,-0.1422238299999989
mp-1187244,TaP,-0.9284483492857144
mp-1187245,TiMo2W,-0.1378248400000004
mp-1187252,TaTc2Ge,-0.313047212499999
mp-1187257,TaZn3,-0.06603359125
mp-1187263,Tb2PdRu,-0.6215853375
mp-1187269,Tb2TlHg,-0.4160947949999998
mp-1187274,Tb2RuRh,-0.5946076049999993
mp-1187276,Tb2InHg,-0.4648624824999996
mp-1187284,Tb2Si5Ir3,-0.9869593339999996
mp-1187292,Tb3Ge5,-0.7273194387499995
mp-1187299,Tb3In,-0.2543382687499997
mp-11873,TlAsPd5,-0.357444715714285
mp-1187317,Sr4Nb2O9,-3.2946741585277777
mp-1187329,TbDyIr2,-0.8059086275
mp-1187334,TbDyIn2,-0.4627497600000003
mp-1187335,TbDyRh2,-0.8694699275
mp-1187336,TbErIn2,-0.4500708550000003
mp-1187337,TbErRh2,-0.8969245924999996
mp-1187340,TbLuIn2,-0.4258903424999998
mp-1187343,RbMg149,-0.0155189948277776
mp-1187345,TbErIr2,-0.8356260749999995
mp-1187346,TbHoIn2,-0.4566511625
mp-1187348,TbHoRh2,-0.8832011174999996
mp-1187349,TbMgZn2,-0.350696890833333
mp-1187351,TbHoIr2,-0.8209474224999997
mp-1187357,TbLuRh2,-0.9291293324999996
mp-1187361,TbMg3,-0.0708693924999996
mp-1187367,TbRh2Pb,-0.5588318199999991
mp-1187376,TbSmRh2,-0.7900985858333325
mp-1187378,TbYbPd2,-0.8828734791666664
mp-1187384,TbTmIn2,-0.441551968333334
mp-1187388,TbTmIr2,-0.849945373333334
mp-1187401,ThAgHg2,-0.2031637758333335
mp-1187402,ThAlCu2,-0.2641877225
mp-1187417,Ti2MoPd,-0.3935674525000001
mp-1187418,Ti2AlW,-0.2542191599999999
mp-1187420,Ti2MoOs,-0.4078722724999988
mp-1187422,Ti2CoOs,-0.5605861012499993
mp-1187426,ThMgHg2,-0.3041610808333335
mp-1187427,Ti2FeOs,-0.5651244949999992
mp-1187429,Ti2FeCo,-0.4065492537499988
mp-1187432,Ti2CoMo,-0.2561132512499995
mp-1187434,Ti2FeTc,-0.4501147574999979
mp-1187436,Ti2CuRe,-0.2710285187499988
mp-1187438,ThMgAu2,-0.6735500358333333
mp-1187452,ThPt3,-1.0729076949999996
mp-1187455,ThInCu2,-0.248804312499999
mp-1187456,ThMgRh2,-0.7178520433333331
mp-1187459,TiGaCu2,-0.2354389250000004
mp-1187461,Ti2VOs,-0.3722903062499991
mp-1187464,TiAlIr2,-0.9079072074999992
mp-1187470,TiCrTc2,-0.2591103474999983
mp-1187486,Tl3Sb,-0.0103727887499998
mp-1187489,TiTc2Ge,-0.3817267624999996
mp-1187492,TiTc2Sn,-0.2408682049999999
mp-1187499,TiMnIr2,-0.5779935074137938
mp-1187502,Tl3Bi,-0.0367556200000001
mp-1187504,YbSmAu2,-0.8956430425000006
mp-1187505,YbYHg2,-0.5771030800000001
mp-1187506,YbYZn2,-0.3433108874999999
mp-1187507,YbTmZn2,-0.3347137075000002
mp-1187509,YbYPt2,-1.1702225574999998
mp-1187511,TiRe2Mo,-0.288136699999999