material_id,pretty_formula,formation_energy_per_atom
mp-1209639,RbLaZr6FeCl18,-2.2035159768955546
mp-1209642,PrAlGe2O7,-2.8417172982954555
mp-1209643,Sm3Sc2(FeO4)3,-3.184586930875
mp-1209651,Pr2NiB10,-0.5230918510256402
mp-1209652,Rb2(NbBr3)3,-1.1749611585714288
mp-1209653,Pr3TiSb5,-0.9117075883333332
mp-1209654,Rb2CeBr5,-1.8254205643750003
mp-1209660,Rb2Zn2(MoO4)3,-2.10213673868421
mp-1209661,Pr3ZrSb5,-0.9687519461111116
mp-1209662,Rb2Mg2Be3F12,-3.589201636760351
mp-1209665,Rb3LiPb4,-0.234089944270833
mp-1209666,Rb2LaTa6(Br5O)3,-1.570699722361111
mp-1209667,Rb2LaI5,-1.5490092509375
mp-1209670,PrMg(BO2)5,-3.0990894202941166
mp-1209676,RbZr6MnCl14,-2.0413004196725084
mp-1209682,Pr4CdPd,-0.3887937320833329
mp-1209683,Rb2Ca2Be3F12,-3.7160684618042112
mp-1209684,PrAg(WO4)2,-2.352364675277778
mp-1209686,Pr4CdPt,-0.5239585316666661
mp-1209687,PrGePd,-0.9006140802777772
mp-1209690,Rb2Be3Zn2F12,-3.1978512694357897
mp-1209691,Sm12InCo6,-0.1766224626315786
mp-1209693,Rb3Sb2I9,-0.8706143548214287
mp-1209696,Sm12Co6Pb,-0.1965689978947363
mp-12097,Sm(SiIr)2,-1.0691896366666669
mp-1209708,Pr4MgNi,-0.1337823251388883
mp-1209709,Pr4CdIr,-0.42861537625
mp-1209712,Pr5Ge3O13,-3.068710014821429
mp-1209719,Rb2Be3Ni2F12,-3.069536316935789
mp-1209720,Pr4MgIr,-0.3293752226388887
mp-1209722,Sm5CuPb3,-0.4926543285185182
mp-1209726,Pr5(In2Pt)2,-0.7429959736363633
mp-1209728,Rb2CeTa6(Br5O)3,-1.5420263527314804
mp-1209733,SmZr6(PO4)9,-3.2492268419322348
mp-1209738,Pr2Cu(GeO4)2,-2.653100243076923
mp-1209740,Pr2MoO6,-3.143915748055554
mp-1209742,Pr2MgPtO6,-2.855606306583333
mp-1209743,Pr3RuBr3,-1.254835613571429
mp-1209746,Pr3Se3N,-1.8363232184873213
mp-1209747,Pr2Ni12P5,-0.6788846393609028
mp-1209751,Pr2MnNiO6,-2.7195691028115165
mp-1209756,Pr2(SO4)3,-2.746465200845588
mp-1209760,RbCu(PO3)3,-2.3866358865688784
mp-1209761,Pr3Ni3Bi4,-0.5834034934999999
mp-1209768,Pr8Sb14Pt17,-0.8520862116666665
mp-1209773,Rb3La3(BO3)4,-3.1408165589015145
mp-1209774,PHPbO4,-2.2073681681702046
mp-1209777,Pr3PBr3,-1.668473590153061
mp-1209778,Pr3HfSb5,-0.935534609444444
mp-1209784,Pr3Re2O9,-3.0175650161607144
mp-1209785,Pr3PtBr3,-1.4876885085714282
mp-1209786,Nd2MgPtO6,-2.8716992795833334
mp-1209787,Pr3RhBr3,-1.3788128989285713
mp-1209791,NiP8W,-0.2334981353571422
mp-1209795,Pr2(Al3Ir)3,-0.8389706314285722
mp-1209796,PrInCu5,-0.1997607832142855
mp-1209798,Pr(Al5Fe)2,-0.3422416853846155
mp-1209799,Pr3CBr3,-1.2817519685714285
mp-12098,K(PRh)2,-0.7455010880285713
mp-1209801,Pr3Ge5,-0.7356919506250001
mp-1209802,Pr3NiGe2,-0.7048164887499991
mp-1209803,Pr2(Al3Rh)3,-0.8112665507142854
mp-1209807,Pr2(MoO4)3,-2.69860390617647
mp-1209812,P3(PbO3)4,-2.308556267142856
mp-1209813,Sm3Sn13Ru4,-0.4099261054999992
mp-1209814,Pr3OsBr3,-1.190228313928571
mp-1209823,Ni2PPd,-0.4829278983928571
mp-1209824,PrH6(CO3)3,-1.822730954629999
mp-1209825,NdMgAg,-0.262256408888889
mp-1209827,Nd(ZnP)3,-0.5939717258163262
mp-1209829,NdBPt4,-0.7728946072222224
mp-1209832,Nd3Cu4(P2O)2,-1.4663167159065935
mp-1209833,NdCdAu,-0.6513395755555555
mp-1209836,NdZnGe,-0.6945308483333333
mp-1209837,Sr2Ca49Mo12N56O3,-1.141307550945602
mp-1209840,NdSi2Ir3,-0.9514315116666672
mp-1209843,NdAlRh,-0.8286051608333338
mp-1209845,NdSiPd2,-0.9175651406250004
mp-1209846,Pr3IrI3,-1.1620820871428568
mp-1209847,NdNiAs,-1.0272072475000005
mp-1209848,Nd2Pd2O5,-2.512606202361111
mp-1209849,NdP2,-1.030423037380953
mp-1209858,Pr3IrBr3,-1.4149777417857143
mp-1209859,RbPr2Cl7,-2.664973725532
mp-1209861,Nd3HfSb5,-0.927649868888889
mp-1209865,NbSeBr,-0.8868430774479167
mp-1209866,NdZr3F15,-4.132506965413159
mp-1209868,Nd(TmS2)3,-2.4794670478750005
mp-1209869,SmTa6Br13O3,-1.518765659112317
mp-1209871,Nd(Al5Os)2,-0.4617282080769233
mp-1209872,NdZr2F11,-4.174184724149286
mp-1209873,NdHf2F11,-4.277743838792143
mp-1209876,Nd(Al5Ru)2,-0.5187040657692312
mp-1209881,NbTlCl6,-1.6373977030699995
mp-1209882,Nd2Be2GeO7,-3.247797044479168
mp-1209887,NbFeSi,-0.6055532308333333
mp-1209888,Nd3W(ClO2)3,-3.1078514117138463
mp-1209890,Nd2(Al3Ir)3,-0.8492840974999994
mp-1209892,Nd(FeAs3)4,-0.3735754541176461
mp-1209894,NdSI,-1.997262556041667
mp-1209901,NdSi3N5,-1.444148679655556
mp-1209902,Nd3(Si3Pd10)2,-0.8066561627586203
mp-1209904,Nd(Al5Fe)2,-0.3477429703846155
mp-1209906,NdSO,-3.002661478958333
mp-1209907,Nd2Si5Rh3,-0.9699336430000004
mp-1209911,NdSbIr,-0.8646669366666657
mp-1209912,Pd3Se2S,-0.4502112502604163
mp-1209918,NaY(Pd3O4)2,-1.4458657448958334
mp-1209920,Nd2(Al3Rh)3,-0.8212115857142857
mp-1209921,Nd2Si5Ni3,-0.769992091000001
mp-1209926,RbTaGeO5,-2.739444639427083
mp-1209930,Nb5SiB2,-0.6519986095833339
mp-1209932,Nd3Si6N11,-1.502466080059
mp-1209933,Nd9Ga4,-0.3648242576923075
mp-1209940,NaSmCu2F8,-2.9310362156544443
mp-1209941,Nb5Si3N,-0.8064483274866663
mp-1209942,Pr4CdNi,-0.2323026199999998
mp-1209943,Pr3Cr10N11,-0.8836621696324988
mp-1209944,Nd3(Al3Ru)4,-0.6414048434210533
mp-1209947,Sc44Ru7,-0.2117952009803917
mp-1209949,Pr3Sc2(FeO4)3,-3.16264777825
mp-1209950,NaYb(Pd3O4)2,-1.382647495104166
mp-1209951,NaYbCu2F8,-2.7168505500988887
mp-1209955,Nd2SiS5,-1.9655176713281248
mp-1209956,NaTb(Pd3O4)2,-1.4547258021874994
mp-1209958,NdTl(WO4)2,-2.480764687916666
mp-1209959,NaTm(Pd3O4)2,-1.4585419592708329
mp-1209961,NaTbCl4,-2.5179749221733334
mp-1209963,NaLaCuTe4,-0.8364690128571434
mp-1209966,Nd3(P3Pd10)2,-0.7038269190147779
mp-1209967,Nd2Co3Ge5,-0.5826492814999995
mp-1209968,NaHoCl4,-2.509703227173333
mp-1209969,NaHo(Pd3O4)2,-1.4557417896875
mp-1209971,Pr12(OsC3)5,-0.2166867996874995
mp-1209972,Nd3(Al3Os)4,-0.5685438042105264
mp-1209974,Pr12(MnC3)5,-0.1935787371336204
mp-1209975,Nd3Se3N,-1.8454163045587493
mp-1209976,Nd4CdPd,-0.3998250604166665
mp-1209978,Nb4VSe8,-0.8557419760576929
mp-1209980,NaLiBeF4,-3.332881844489524
mp-1209982,NaMoO3F,-2.3556790991566667
mp-1209983,Nd4CdIr,-0.4469391854166661
mp-1209984,NdGa4Os,-0.4664408622222219
mp-1209986,NaLiEr2F8,-4.05245974384889
mp-1209987,NdCu5Sn,-0.2516595653571422
mp-1209988,Ni21(GeB3)2,-0.2824160468965519
mp-1209989,Nd4CdPt,-0.53867630375
mp-1209991,NaLiLu2F8,-4.060545960932222
mp-1209995,RbZr6BCl15,-2.167936411618841
mp-1210,ThCd2,-0.1903591500000002
mp-12100,Lu(SiNi)2,-0.8390300340000003
mp-1210002,NaNbS6,-1.132479817343751
mp-1210003,NaLiHo2F8,-4.047914445098889
mp-1210004,Rb4Zn(MoO4)3,-2.196325551437501
mp-1210006,NaLiTm2F8,-4.064066324404444
mp-1210008,Pr2(MoO4)3,-2.697759013823529
mp-1210009,Nd4MgPt,-0.4403158013888888
mp-1210010,NdIn2Cl5,-1.9407148223500004
mp-1210016,NaNdMgWO6,-2.876413668083333
mp-1210017,NdSiPd,-0.9279998194444444
mp-1210019,Nd4MgCo,-0.0825688963888892
mp-1210021,NaFeAsO4F,-2.129636960148749
mp-1210024,Pr6Ni20P13,-0.8527578051648357
mp-1210030,Nd4MgRh,-0.3289840143055554
mp-1210031,NaSrGaF6,-3.456180243200741
mp-1210032,Pr3Ga5O12,-2.896134355125
mp-1210038,Nd4MgNi,-0.1420528009722221
mp-1210040,NaDyCl4,-2.51414868884
mp-1210043,PrIn2Cu9,-0.1284598012499997
mp-1210049,NdNiGe,-0.6970241033333338
mp-1210051,NdAg(WO4)2,-2.357288606944444
mp-1210053,Pr3Sn13Ru4,-0.4328242147499992
mp-1210056,Tb3(In3Pt)4,-0.554480751578947
mp-1210057,P3Pb5BrO12,-2.251247679557824
mp-1210058,Ni10SbP3,-0.409194335289115
mp-1210059,NdNb3O9,-3.2584078424038463
mp-1210060,Rb2CeI5,-1.4713774443750005
mp-1210064,Nd2Ta3(SeO4)2,-3.105978266479167
mp-1210066,NaLaAgTe4,-0.8566406626190474
mp-1210067,Nd3Cu3Bi4,-0.5729959155000003
mp-1210068,NaErCu2F8,-2.94577992871
mp-1210069,NaDy(Pd3O4)2,-1.4549465959375
mp-1210070,Nd2Ni12P5,-0.6844796198872184
mp-1210071,Nd2(SeO3)3,-2.2989138520200894
mp-1210073,Nd3NiGe2,-0.7222264570833327
mp-1210076,Nd4CdNi,-0.2423329774999996
mp-1210077,Nd12(OsC3)5,-0.2433218225000004
mp-1210079,NaGdCu2F8,-2.925383039543334
mp-1210080,NdMg(BO2)5,-3.1020338423529408
mp-1210082,Nd6Al5Fe9,-0.2179596907499998
mp-1210087,NaEr(Pd3O4)2,-1.4562283940624994
mp-1210091,Nd3CoGe2,-0.6572926499999999
mp-1210092,NaBi(MoO4)2,-2.065720584583333
mp-1210094,NaAs4IO6,-1.573675813958333
mp-1210096,Pr(InPt)2,-0.7730001094999999
mp-1210097,NaPr(CO3)2,-2.53616443825
mp-1210098,Rb2CeCl5,-2.5893207676625
mp-12101,Lu(SiOs)2,-0.7006202200000005
mp-1210101,NaBe2Tl3F8,-2.8653556774657147
mp-1210112,Nd6Ni20P13,-0.8700488054212456
mp-1210115,NaSrPO4,-3.033704367534013
mp-1210117,NaLuSiO4,-3.4083843682142856
mp-1210121,NaTh2(PO4)3,-3.3418453464285705
mp-1210122,NaMn4(AsO4)3,-1.9833725011230343
mp-1210124,NaSrTiF6,-3.724403017922962
mp-1210126,NaSm(CO3)2,-2.5344139600833344
mp-1210127,Nd(SiP3)2,-0.4306260087698403
mp-1210133,NaGaP2O7,-2.6215214003084424
mp-1210138,NaNd(CO3)2,-2.5363205572499994
mp-1210143,Rb2Cd2(MoO4)3,-2.042726999868421
mp-1210145,NdCrGeO5,-2.8177383167187493
mp-1210151,Nd3Re2O9,-3.0282034718750004
mp-1210153,Nb3(Ni10B3)2,-0.350601532413794
mp-1210154,Nd3Ni3Bi4,-0.5834185040000002
mp-1210155,NaAlBr4,-1.3233106274999995
mp-1210157,NaCu2H3(SO5)2,-1.6820885344227772
mp-1210159,Pr(Cu2P)2,-0.5243529324489791
mp-1210167,Nb6HSI9,-0.6012002427497056
mp-1210168,Nd12(MnC3)5,-0.2212730424461204
mp-1210170,Sc13Zn58,-0.2712964161267606
mp-1210173,Pr3CoBr3,-1.194546006785714
mp-1210179,Nb2(Ni7B2)3,-0.3179080841379314
mp-1210180,Na5IO6,-1.6758479622916669
mp-1210184,Na6MgCl8,-2.142077284627556
mp-1210185,Na4Y2(IrO4)3,-2.107696690079365
mp-1210188,Nd2Ti3(BiO6)2,-3.169968529473685
mp-1210189,Nd2(Ga3Ru)3,-0.5384591739285705
mp-1210192,NaFeBr4,-0.8738589387500001
mp-1210199,NaCaAlPHO5F2,-3.106613165485119
mp-1210200,Nb3Tl2Cl9,-1.5997223413814283
mp-1210205,Nb4P2AuS20,-1.0490228073941796
mp-1210209,Na4Er2(IrO4)3,-2.1272242473809526
mp-1210211,Ni16GeP5,-0.4445393760389619
mp-1210215,PdPb,-0.2626474559374996
mp-1210229,Nb3In2Cl9,-1.5315617831671429
mp-1210232,NaMo3(PO7)2,-2.325208847482142
mp-1210240,Rb6V6P6O31,-2.6263551927587456
mp-1210244,Pr23Mg4Pt7,-0.5195373550980387
mp-1210250,Nb3Se5Br7,-0.7815828254479167
mp-1210255,Na3Nd9B8O27,-3.3491553233067384
mp-1210256,RbNbGeO5,-2.589368710052083
mp-1210257,Na3TiF6,-3.279688084214
mp-1210261,NaCr2FeO8,-1.7927342487499989
mp-1210267,Na2ZrS3,-1.775740625729167
mp-1210270,Na2YF6,-3.3286673578303705
mp-1210275,Na3Sr3GaSb4,-0.7255192627272726
mp-1210279,NaCa2Si4O10F,-3.3400181743716666
mp-1210285,Na8Zr6BBr20,-1.4395203993809529
mp-1210286,Na2ReO3,-2.029913470625001
mp-1210287,Pr23Cd4Ir7,-0.4519328241176464
mp-1210290,Nd6Ta4Al43,-0.3046677038679244
mp-1210294,Sc25InIr7,-0.5992579646969697
mp-1210295,NaCe(CO3)2,-2.51064613725
mp-1210296,Pr23Mg4Rh7,-0.3670692827450971
mp-1210297,Pr23Cd4Pt7,-0.583640793382353
mp-12103,N2,8.881784197001252e-16
mp-1210300,PrZr6(PO4)9,-3.250414142348901
mp-1210301,Pr2(Ga3Ru)3,-0.5312982732142858
mp-1210309,Na3TbBr6,-1.699556322
mp-1210315,Rb(Nb2Cl5)3,-1.738261480177273
mp-1210317,Rb2Mo3P3O17,-2.4349101542785707
mp-1210322,Nd6Ti4Al43,-0.3367643674528303
mp-1210332,Na3TmBr6,-1.6954048423333332
mp-1210336,Nd6Nb4Al43,-0.3301809518867924
mp-1210337,Sr5(RhO3)4,-2.1845476870634912
mp-1210342,Th3In13Ni4,-0.2704401780000005
mp-1210352,Na2BeCl4,-2.006241507934286
mp-1210356,Na2PdF6,-2.3576675259785187
mp-1210360,Na3Sb3(PO7)2,-2.2856858533928577
mp-1210363,Nd6Al43V4,-0.3062605047169817
mp-1210364,Na2Sm2B2O7,-3.1374894459294875
mp-1210365,Re3Br7,-0.2780887605000003
mp-1210366,Y3Ga15Ru4,-0.5187948540909088
mp-1210368,Na2PbO3,-1.696321471875
mp-1210375,Na2ZrSi4H4O13,-2.751711212530417
mp-1210377,Sc57Ru13,-0.2864796944285712
mp-1210378,Rb2Mg2(MoO4)3,-2.401917137587718
mp-1210379,Sc50In3Rh13,-0.5130289103030298
mp-1210390,Na2TmMoPO8,-2.818490485146521
mp-1210395,SmNb6Cl13O3,-2.106740331824492
mp-1210398,NiAg(PO3)3,-2.206755689396258
mp-12104,NbSi2,-0.5505275677777774
mp-1210400,Na3LiTi2F12,-3.5330254044970366
mp-1210406,NaInH12(SeO7)2,-1.4332574188542504
mp-1210408,Nd3Tm2(GaO4)3,-3.3729785924583324
mp-1210411,Nd23Mg4Ir7,-0.4021802792156864
mp-1210413,Pr23Cd4Rh7,-0.4352543483823523
mp-1210414,Na2TeH6SO10,-1.7136476633672495
mp-1210416,Na4CaZr2TiSi4(O8F)2,-3.309342942579333
mp-1210420,Na3InF6,-2.975456991214
mp-1210429,Na3CrO4,-1.975271001875
mp-1210431,Na2MgGeO4,-2.393496172291666
mp-1210432,Na2MgCrF7,-3.305025319242121
mp-1210433,Na2MgGaF7,-3.2685049269693938
mp-1210441,Na3LuBr6,-1.6881410445
mp-1210443,Na5(ZnSn5)2,-0.1648368947058822
mp-1210452,SCl4,-0.7555265745455
mp-1210464,Na2Nd2B2O7,-3.122498782916668
mp-1210466,Na2MgScF7,-3.725196230151212
mp-1210467,Na3H2SNO8,-1.842731438183
mp-1210469,Rb2Ba(Ge4O9)2,-2.259626559511495
mp-1210472,Na3La(BO3)2,-2.830612871388889
mp-1210474,Na5(Sn5Hg)2,-0.171736975147059
mp-1210477,Nd23Cd4Pt7,-0.59931033882353
mp-1210482,Pr2InCuSe5,-1.2315728790798617
mp-1210483,Na2CoNiF7,-2.536377489393636
mp-1210494,Pr23Cd4Ni7,-0.21965942867647
mp-1210498,Nd3Ho2(GaO4)3,-3.349195046125
mp-12105,RbO2,-0.9622506166666666
mp-1210500,Na2GdCl5,-2.3996292211
mp-1210504,Na3MnO4,-1.7371846591393965
mp-1210506,Na3HoBr6,-1.6975818374999996
mp-1210509,Pr12Co6Pb,-0.1325019894736834
mp-1210514,Pr3Lu2(GaO4)3,-3.3753360762499995
mp-1210524,Lu5SbPt2,-1.019926065
mp-1210529,Na3ErBr6,-1.6961186860000002
mp-1210532,Lu5BiPd2,-0.7100913799999997
mp-1210534,NaAgTe5O14,-1.435635563253968
mp-1210535,Nd23Cd4Ru7,-0.251048680588235
mp-1210536,Na3DyBr6,-1.698191556
mp-1210539,NdIn2Cu9,-0.1305156854166664
mp-1210541,NdIn2Pd,-0.6511410857500003
mp-1210556,Lu5In4,-0.380837968888889
mp-1210567,MnZn13,-0.0218107910467981
mp-1210568,Lu6Co2Sn,-0.3803489799999993
mp-1210574,Lu5(ReO6)2,-3.412719427105263
mp-1210576,Nd3Sc2(FeO4)3,-3.174942493750001
mp-1210579,Na2CaZrSi2O7F2,-3.381805358075334
mp-1210583,Nd23Cd4Ni7,-0.2344852248529421
mp-1210598,Mn2TeO6,-1.7986745981922614
mp-1210603,MgZn2(PO4)2,-2.613400932728938
mp-1210610,MgZn7O8,-1.9504607348958327
mp-1210613,Mn2VPO7,-2.470788650777435
mp-1210619,Na3Nd(PO4)2,-2.9504039350637754
mp-1210623,MgGaBO4,-2.758876750952381
mp-1210625,LuZnPt,-0.9990808466666662
mp-1210630,Nb6TlCl15,-1.6496842996090912
mp-1210632,Nd12Co6Pb,-0.1575549336842101
mp-1210634,MgFeBO4,-2.6212776916666667
mp-1210639,Mn5V2(HO3)4,-2.020178193589385
mp-1210641,Mg3B2Rh5,-0.5770253871666668
mp-1210648,Mg2MnGa3,-0.1439785260536397
mp-1210650,LuZnRh,-0.7713631566666663
mp-1210651,Lu5Ni2Bi,-0.4785203799999999
mp-1210653,Lu4CdIr,-0.5551751712499998
mp-1210656,MgZn2(AsO4)2,-2.024411779871795
mp-1210658,Lu5CuPb3,-0.4262204994444442
mp-1210659,Mg3B7BrO13,-2.8634638437326387
mp-1210661,LuZnSn,-0.492079270833333
mp-1210662,Lu4CdNi,-0.3262617958333328
mp-1210669,MgAl3SiBO9,-3.3119632548611104
mp-1210670,Na3Pr(AsO4)2,-2.3733154675000003
mp-1210677,Mg2Ir3,-0.3587919637333334
mp-1210681,Lu6InCo2,-0.3104218177777771
mp-1210682,Na3Li3Rh2F12,-2.674884483589
mp-1210695,Mg3Cu2(AsO4)3,-2.045985696
mp-1210698,LuTiClO3,-3.551423460335
mp-1210699,Mn2Be3Tl2F12,-3.09565693002686
mp-12107,TiPt3,-0.8443506549999995
mp-1210700,Mn(SbSe2)2,-0.3100552934328822
mp-1210703,Mg3Pd5,-0.6518485849999998
mp-1210714,VH12SO10,-1.6192416813152082
mp-1210727,Nd3Lu2(GaO4)3,-3.38736756775
mp-1210733,Lu4MgRh,-0.4269470818055545
mp-1210736,LuTl(WO4)2,-2.5056259199999986
mp-1210749,Lu7(TeRu)2,-0.7214119581818181
mp-1210753,Li2Al,-0.1629168444444442
mp-1210754,Lu5Ni2Sb,-0.5652396012500001
mp-1210758,Na3Y(PO4)2,-2.956842370034013
mp-1210767,Pr12InCo6,-0.1139327799999997
mp-1210768,Lu4CdPd,-0.4763011166666662
mp-1210769,Na3Sm(PO4)2,-2.951937932801871
mp-1210775,LuOF,-4.358703256646668
mp-1210776,Nd5Ti5O17,-3.71492939125
mp-1210778,Li2Sm2Si3,-0.6214415271428564
mp-1210780,Li2Pr2Si3,-0.6100900426190472
mp-1210782,LuCo4B,-0.3314965530555558
mp-1210787,Nd23Cd4Ir7,-0.4720520705882361
mp-1210791,LuPPd,-1.2646073103571425
mp-1210796,Li2MnGeO4,-2.277387639556064
mp-1210797,Li2MgGeO4,-2.5369599377083327
mp-12108,VPt2,-0.5440878933333325
mp-1210802,Tb3Ga15Ru4,-0.5223623123863639
mp-1210803,Lu4CdPt,-0.6336712141666663
mp-1210804,Li2ZnGeS4,-1.2174758807291672
mp-1210809,Na3Nd(AsO4)2,-2.377025064017857
mp-1210813,Lu3Fe2Si3,-0.7081046443749992
mp-1210815,Lu3Co2Si3,-0.7889774124999995
mp-1210816,Na2Ca4YZrSi4(O5F)3,-3.5274375133551104
mp-1210817,MnAlSiO5,-2.9475061086706464
mp-1210818,LuF3,-4.4248372046425
mp-1210819,LiMg2H7Os,-0.4374186194248485
mp-1210820,Nd6Si4Ni7,-0.6139398105882359
mp-1210835,Li2BeCl4,-1.9890260762676188
mp-1210844,Na3Pr(PO4)2,-2.947316036938775
mp-1210845,NaGaGeO4,-2.2193707370238087
mp-1210846,LuCoB4,-0.6345206505555557
mp-1210849,Li2Fe(WO4)2,-2.231923162564102
mp-1210858,Pr12Ni6Pb,-0.2665218752631569
mp-1210866,LiVCdF6,-3.004205420978519
mp-1210867,Nd12Ni6Pb,-0.2854479763157895
mp-1210874,Lu2Cu(GeO3)4,-2.547982037631579
mp-1210877,Li2TcO3,-2.088680705347222
mp-1210884,Li2Ce2Si3,-0.558807859761904
mp-1210885,NdZr6(PO4)9,-3.250226912252748
mp-1210890,Lu(Co2Ge)2,-0.3912365978571434
mp-1210892,NaMgAl5P4(H5O12)2,-2.5435514346404235
mp-1210893,Lu(Al5Fe)2,-0.3425601800000001
mp-12109,ZrRe2,-0.3591717116666662
mp-1210908,Li2Lu5B3O13,-3.5372964304166667
mp-1210911,Lu2(Al3Ir)3,-0.8405954839285711
mp-1210912,Lu2(Al3Rh)3,-0.8142384200000004
mp-1210917,LuSnF7,-3.592896468981112
mp-1210919,LiLa(WO4)2,-2.6641741026388885
mp-1210923,Li2FeGeO4,-2.209875909791667
mp-1210924,LiTb2RuO6,-2.874834958916668
mp-1210925,Mg2Be3Tl2F12,-3.3608781504445617
mp-1210928,Lu4InRh,-0.5870552412500002
mp-1210931,LiFeCl4,-1.5086714370344445
mp-1210933,LiV(WO4)2,-2.316500051388889
mp-1210935,Li3Dy3(TeO6)2,-2.791869649125
mp-1210938,SmIn2Pd,-0.6413267553333334
mp-1210940,Li(YGe)4,-0.813487289444444
mp-1210943,Rb2La10Co2I17,-1.284263463548387
mp-1210954,LiSm2RuO6,-2.792534901583334
mp-1210956,Lu2(Ga3Rh)3,-0.6788345410714288
mp-1210969,Lu6Al43V4,-0.2955728091509437
mp-1210971,Lu6Nb4Al43,-0.313374524339623
mp-1210974,LiH2CN5,-0.4283010673118521
mp-1210977,LiMn2TeO6,-1.9409380155397016
mp-1210981,La3PBr3,-1.7561845647959184
mp-1210985,Na3La(PO4)2,-2.9714816727423465
mp-1210986,Li14Be6(BO3)9,-2.7621071878050603
mp-1210989,Li3Er3(TeO6)2,-2.796197533
mp-1210990,Lu3(P3Pd10)2,-0.7375776100492607
mp-1210997,LiTm(WO4)2,-2.673333572916667
mp-1210999,LuGaNi2,-0.6042164774999996
mp-1211,ScCd,-0.2985059474999998
mp-1211000,LiSm(WO4)2,-2.6363249874999988
mp-1211003,Lu4MgNi,-0.2230926093055547
mp-1211004,LiSm(WO4)2,-2.642470813333333
mp-1211005,LiTb(WO4)2,-2.655704358055555
mp-1211006,LuPtF7,-2.9393845509255554
mp-1211009,Mg5As4(H11O13)2,-1.8022310161194155
mp-1211011,Na3Tb(PO4)2,-2.9644434402423463
mp-1211012,LiYGeO4,-2.907365295714285
mp-1211014,La3OsI3,-1.0667748203571428
mp-1211018,Lu12Fe2Pb3,-0.2325910094117639
mp-1211020,LiGa(PO3)4,-2.630782182830688
mp-1211033,Lu12In2Fe3,-0.2080710088235294
mp-1211036,Lu2B6Rh,-0.6895522580555556
mp-1211038,Na3PrV2O8,-2.667240072589286
mp-1211045,LiGd2RuO6,-2.839066380916667
mp-1211047,Nd6TiInS12,-2.184337360375
mp-1211048,Li2Pr5Sn7,-0.6937253014880947
mp-1211055,LiPt3O4,-1.093418525833333
mp-1211056,LiMoN2,-0.6831420153566663
mp-1211060,Na5Ca7Zr2Ti2Si8(O5F)6,-3.419669022243999
mp-1211071,Nd12InCo6,-0.1369999273684207
mp-1211075,Na3Dy(PO4)2,-2.964126794438775
mp-1211078,TbGe3Rh5,-0.7122643733333331
mp-1211079,LiTb6B3O14,-3.603497542673612
mp-1211080,LiNd2RuO6,-2.7693403479166663
mp-1211088,LiCaP,-1.0350842350793652
mp-1211094,LiCaVF6,-3.5863166393118515
mp-1211098,LiCrCdF6,-2.939657725978518
mp-1211101,NbNi11(BO5)4,-1.7549416623148155
mp-1211106,LiPr2RuO6,-2.801169851916666
mp-1211118,Na3La(AsO4)2,-2.398809748571428
mp-1211124,Li6NiCl8,-1.8892252264053333
mp-1211126,LiSc(WO4)2,-2.624650722222223
mp-1211130,LuIn2Pd,-0.619030385
mp-1211136,Lu2(MoO4)3,-2.7715240120588227
mp-1211137,LiNd(WO4)2,-2.637771518472222
mp-1211138,Li5Ni9P7,-0.636926744444445
mp-1211140,Li8Ag5,-0.2028003688461536
mp-1211142,Li5IO6,-1.919165466875
mp-1211144,LiSm6B3O14,-3.530631221111112
mp-1211146,Li5Ni9As7,-0.4774089692063499
mp-1211155,La3(Al2Si3)2,-0.4813866680769229
mp-1211163,Lu2Mn17C3,-0.1021605738244527
mp-1211168,Li4Be3P3IO12,-2.805248168146998
mp-1211172,Mn6Te5O16,-1.804317557358927
mp-1211176,Li6AsS5I,-1.2458134788942312
mp-1211185,Li3Ce2(BO3)3,-3.0688041072794108
mp-1211187,Li5OsO6,-2.067257665625
mp-1211195,LiBi(WO4)2,-2.142164515555556
mp-1211197,Nd12InPt7,-0.8846747037500002
mp-1211199,Li4(AlCu2)3,-0.1954553443589743
mp-12112,CdP2,-0.1271951077976195
mp-1211200,MgU2P2(H10O11)2,-2.0544976670292807
mp-1211201,Na3Ho(PO4)2,-2.9633747855102035
mp-1211213,Li3Tb3(TeO6)2,-2.788577603125
mp-1211214,Li4Be3As3BrO12,-2.325182893115943