material_id,pretty_formula,formation_energy_per_atom
mp-21521,Cs2PbO3,-1.5484692707686782
mp-21523,La(In2Au)2,-0.4584352653571427
mp-21524,SrNiN,-0.6823863338488891
mp-21525,RbPb,-0.2171707865624998
mp-21526,KPb,-0.2311784715000002
mp-21529,La3(GaNi)2,-0.5173336785714285
mp-21531,U2Mn3Si5,-0.4781106048965526
mp-21532,La2Ge2O7,-3.047116174659092
mp-21533,CuP2PbO7,-2.2533503605357144
mp-21536,Ni2Mo4C,-0.0973707042857146
mp-21538,Ba5Ge3,-0.5032495834374999
mp-2154,CeP,-1.500623616785715
mp-21540,Li3TiF6,-3.3875805768806666
mp-21541,CaV2P2O9,-2.8717307986352045
mp-21542,K2CeTa5O15,-3.3475270536847823
mp-21546,K2CeNb5O15,-3.0973787436847813
mp-21547,Na3InSb2,-0.3776752029166665
mp-21548,Er(SiNi5)2,-0.4470924911538466
mp-21551,In2(Ni7B2)3,-0.2628526544827589
mp-21554,P3Pb5O12F,-2.3834772798525856
mp-21556,Ce3(InRu)2,-0.4592061539285725
mp-21557,K3Ce(PS4)2,-1.4282694002602043
mp-21559,Zr2Te,-0.6449793497222234
mp-2156,TiS2,-1.7152655354166673
mp-21562,Sm3InSe6,-1.5397717794062502
mp-21567,SmAl3(PbO4)2,-2.9871885079166667
mp-21569,HfReSi2,-0.616700712291666
mp-2157,Co3W,-0.0768517400000003
mp-21573,Ni21(SnB3)2,-0.2825117486206901
mp-21575,Pr3InSe6,-1.5522950939062496
mp-21576,Sc2Te,-0.8214101736111109
mp-21577,Na3InP2,-0.3819260593154763
mp-21578,KCu4(AsO4)3,-1.4427783151499995
mp-21584,Ta11(CoSe4)2,-0.563834668988094
mp-21587,Mg6Ni16As7,-0.3580526589655178
mp-21588,Sc2Fe3Si5,-0.6915742527500001
mp-21589,Ga9Ni13,-0.3896012681818186
mp-2159,DyTe,-1.274942985
mp-21594,Ca9Zn4Sb9,-0.8133465072727268
mp-21596,Ba3Ge4,-0.5716943410714285
mp-21597,Ce3(GeRh)2,-0.8566911042857137
mp-216,Sc2O3,-3.97789783125
mp-2160,Sb2Se3,-0.2555336554062506
mp-21601,Tb(SiNi5)2,-0.4388757073076929
mp-21604,Sm3InS6,-2.0885955296250005
mp-21606,TiMnSi2,-0.6483538953304588
mp-21608,Tm2(Ni7B2)3,-0.3585001864367819
mp-21609,SrCuN,-0.564126537459999
mp-21611,Na2InCuF7,-2.644659753711818
mp-21612,Mg6Cu16Si7,-0.1805474232758624
mp-21613,K5Pb24,-0.0893692039655173
mp-21616,Mn4Be3Ge3SO12,-2.325101563068944
mp-21618,NdAl3(PbO4)2,-2.9854108980357137
mp-21621,Y6Te2Rh,-0.8360957383333335
mp-21622,Na3InAs2,-0.4394525131249995
mp-21623,ThFe5P3,-0.7073299350793655
mp-21625,Y2(Ga3Co)3,-0.4896185769047615
mp-21628,Mn6Ni16As7,-0.2175430788941741
mp-2163,HoRh,-0.9080282300000002
mp-21635,CeMn2(GeO3)4,-2.41682324559107
mp-21639,KTiF4,-3.520030986293334
mp-21644,BaNb8O14,-2.8692497720652184
mp-21647,CeGePd,-0.9024403486111114
mp-2165,SmZn,-0.3252472691666663
mp-21650,Li2NiGe3O8,-2.0975083754166666
mp-21651,Ce5Ge2Ru,-0.6048085759374997
mp-21653,BaNiN,-0.5707797441266662
mp-21656,Ta11(FeSe4)2,-0.5511058054166662
mp-21657,Tl5Se3,-0.326594877128906
mp-21658,Sm5Ga3,-0.4636608967708335
mp-21660,HfGa2Co,-0.5113785287500001
mp-21661,YSi3Ni5,-0.7172273767592591
mp-21662,TiFeSi2,-0.6819230747916656
mp-21666,Nb3(Fe10B3)2,-0.2609274231034474
mp-21667,CeZn(BO2)5,-2.923853394215686
mp-2167,DyAg,-0.3340851466666663
mp-21670,ThInCu5,-0.2081850521428566
mp-21673,Ge2Pt3,-0.4296859340000004
mp-21677,Ca3(InNi2)4,-0.2588425466666668
mp-21683,In2(Ni7P2)3,-0.4094886900492617
mp-21684,Ce5Cu19P12,-0.5265010446626976
mp-21686,Ba4UCr2S9,-1.952283858841146
mp-21689,CeGe3Pd5,-0.699171454444444
mp-21691,La5Pb4,-0.6200939922222217
mp-21693,Ce5Sn4,-0.5843545783333326
mp-21695,Ce(Ni2B)6,-0.3913821484210527
mp-21699,BaLa2In2O7,-2.943246125104168
mp-217,ErTl,-0.2993686699999998
mp-2170,Li2Pt,-0.5422391111111112
mp-21705,K2In3AgSe6,-0.7519012900746525
mp-21706,GdAl3(PbO4)2,-2.9902668423214283
mp-21708,CeCu6,-0.4258368632142856
mp-21710,CaGeAu,-0.7261510666666662
mp-21712,Tb2Ti3Ge4,-0.7973297286111113
mp-21713,K2In3CuSe6,-0.7469732927135411
mp-21718,Sr2In4Pt3,-0.6894960934259254
mp-21719,Sc2V3Ge4,-0.6275074922222217
mp-2172,AlAs,-0.4846066550000003
mp-21723,SiPbO3,-2.6054968242499994
mp-21724,ZnSiPbO4,-2.390195654642857
mp-21725,Mg6Ni16Ge7,-0.3854800927586209
mp-21727,CuGe5Pb3O14,-1.8909822138043488
mp-2173,P2O5,-2.4445823544132645
mp-21733,Sr(InSe2)2,-0.9938329428273808
mp-21739,ScCoGe2,-0.590431541875
mp-21741,K2In2As3,-0.4126190333571427
mp-21742,Ba5AlIr2O11,-2.562355093486842
mp-21748,TbSi3Rh5,-0.9760919766666666
mp-21756,Sr(In4Rh)2,-0.3504336356060604
mp-2176,ZnTe,-0.4732985325000003
mp-21760,Rb2In2Sb3,-0.341703015892857
mp-21763,Nd(Cu2P)2,-0.5316456412585036
mp-21765,Pd17Se15,-0.322352720161132
mp-21766,Ba(InSe2)2,-1.0345720938392855
mp-21767,Si2Pb3O7,-2.4245850647569447
mp-21774,Ca2Sn5Pt3,-0.734817108
mp-21778,Li2Fe2(MoO4)3,-2.141448002543859
mp-21779,CaCuGe,-0.4738856786111106
mp-2178,YbGa2,-0.6127734555555554
mp-21781,Sr(InS2)2,-1.4248737618452385
mp-2179,TiRe,-0.3981583924999992
mp-21792,Na5CoO4,-1.5630077032499998
mp-21793,HoSi3Rh5,-0.9746815357407412
mp-21795,Yb(Ga4Co)2,-0.3761321669696968
mp-21798,NaMoPO6,-2.3954893680357148
mp-218,Sm2O3,-3.8714912523333327
mp-2180,HfSb2,-0.4026765845833336
mp-21801,Rb4PbO3,-1.4149084040624995
mp-21806,YNi5Ge3,-0.5355414695370371
mp-21807,K2Co2(SO4)3,-2.083029725414473
mp-21810,Tm5(Ge5Rh2)2,-0.7903904724561408
mp-21813,U2Nb3Ge4,-0.3815914241666671
mp-21816,Ho5(Ge5Rh2)2,-0.8077882881578944
mp-21819,U2Cr30P19,-0.4714600163305316
mp-21820,Yb2Sn5Pt3,-0.7859743640833337
mp-21826,UNi5Ge3,-0.3655469872222217
mp-2183,ThSe,-1.5493785211718745
mp-21834,Nd6Fe13Sn,-0.0891885950000002
mp-21835,Cs2In2Sb3,-0.3541938917302956
mp-21836,K2In12Se19,-0.6150269875918558
mp-21838,Ce(SeO4)2,-1.8586476508806813
mp-2184,As2O3,-1.6291249737499995
mp-21848,F2,0.0
mp-21852,Nb3PbS6,-1.4512357393750015
mp-21853,SmIn2Ir,-0.5377518270833326
mp-21855,VCu3Se4,-0.4874340024218746
mp-21856,Co2SiO4,-2.212836169642858
mp-21857,Cs(WO3)2,-2.216380355603448
mp-21860,Ta2VO6,-3.132304864166667
mp-21863,Pd3(PbS)2,-0.605712116607143
mp-21866,Dy2InAu2,-0.816422266
mp-21867,NaFe(SiO3)2,-2.7897069397500003
mp-2187,TiSb,-0.4595817924999998
mp-21870,Pr2InPd2,-0.7922226929999994
mp-21871,CeCrS3,-1.7691567458750002
mp-21875,Y4GaCo4,-0.3125451748148151
mp-21876,Ba3NaIr2O9,-2.1600199794166666
mp-21879,Ba2CePtO6,-2.81012885325
mp-21883,VGaFe2,-0.2991721624999996
mp-21885,Ca2InPt2,-0.8857577800000002
mp-21887,NdInPd,-0.7827301922222224
mp-21890,NdCoSi,-0.6785672466666656
mp-21891,PrSi2Mo2C,-0.4458662708333326
mp-21892,Al2PbO4,-2.902532095
mp-21894,LiSn4Ir,-0.3158617561111108
mp-21895,Na15Pb4,-0.1382601560526314
mp-21896,Na2W2O7,-2.2255748926136367
mp-21899,UZnNi4,-0.280899879166667
mp-219,MoP,-0.6556466092857143
mp-21900,Ce(SiIr)2,-1.0571674399999993
mp-21901,SrIn4Ir,-0.3464852586111107
mp-21902,Th2FeB10,-0.6108118337179473
mp-21907,NbSiAs,-0.593440466666666
mp-21908,Co(SbO3)2,-1.8505744019444448
mp-2191,ErSb,-1.0861958375
mp-21911,PRu2,-0.4096117778571428
mp-21913,NaPWO6,-2.433617238313492
mp-21922,Te3(PbO4)2,-1.566118250641026
mp-21931,Sc11(AlGe4)2,-0.8145514221428576
mp-21932,Na3Li3Co2F12,-2.8175411424640004
mp-21934,In9Pb4S17,-0.8979250644375
mp-2194,TiSe2,-1.1117899448958326
mp-21941,Th(Fe2P)2,-0.669323906972789
mp-21943,Ba(InS2)2,-1.4581164094642862
mp-21945,Ge3Ru2,-0.3560671252499986
mp-21947,Ce(SO4)2,-2.560371702386363
mp-21949,K4PbO3,-1.4837750505625005
mp-2195,LuMg,-0.0477541316666663
mp-21951,Er3Co29(Si2B5)2,-0.4015744306159426
mp-2196,BaSb2,-0.7212828777777776
mp-21965,V8Ga41,-0.181253659183673
mp-2197,BaHg,-0.5330588199999999
mp-21971,Ca3Fe2(GeO4)3,-2.567224914125
mp-21975,In4Ag9,-0.0332852332692315
mp-21978,Na2AlCoF7,-3.205596530416364
mp-21981,YNiSn2,-0.5963168193750003
mp-21985,In3Cu7,-0.0065326760000004
mp-21989,Ca3Sc2(GeO4)3,-3.0981963674999995
mp-2199,Fe3Si,-0.3206737562500006
mp-21991,Rh17S15,-0.7429569720898428
mp-21996,Na5NiO4,-1.3858145385
mp-220,ThNi2,-0.4336811300000001
mp-22003,NaN3,-0.3914217505349997
mp-22005,V2Pb2O7,-2.1518207123863635
mp-22007,CsIn5S8,-1.034673389495074
mp-2201,PbSe,-0.5606600861718745
mp-22012,Tb(MnGe)6,-0.3049590475331554
mp-22014,Sc2SiB2Ir5,-0.8675597836666669
mp-22017,LaIn2Ir,-0.5791634462499999
mp-22018,Hf(MnGe)6,-0.2795056452254644
mp-22019,Yb3Sb5O12,-2.405374741
mp-22020,Ca2NiOsO6,-2.23098909525
mp-22023,Pb3SO6,-1.8317992420625004
mp-22024,GdVO4,-3.1840179033333342
mp-22028,GdMgPt,-0.9427646844444442
mp-22032,TbInIr,-0.7019394477777783
mp-22033,Ti5Sb3,-0.4922740090624993
mp-22035,KFe2S3,-1.0085253628958335
mp-22036,ZrSbPd,-0.7493784658333335
mp-22038,RbFe(SeO4)2,-1.4764860528906247
mp-22039,Dy3(CuGe)4,-0.631933555454546
mp-22041,HoGeRu,-0.7290427758333339
mp-22044,Sm2Ge2Ru,-0.7647265623333332
mp-22048,Pt2PbO4,-1.1254094507142856
mp-2205,LuPd,-0.9742328900000006
mp-22050,Hf2In5,-0.1338117314285714
mp-22051,LuGeRu,-0.7393326383333338
mp-22056,YIn2Ni,-0.4396805095833329
mp-2206,LuCo2,-0.2597972733333336
mp-22061,In(TeMo)3,-0.2343912378571419
mp-22062,Yb4As6Rh7,-0.9663282950980392
mp-22065,UGePt,-0.6179231350000004
mp-22066,Dy(CuGe)2,-0.4577190900000005
mp-2207,NbSe2,-0.8390289182291669
mp-22072,YbF3,-3.437583161309167
mp-22074,CeTaO4,-3.675167641249999
mp-22075,In7Pt3,-0.4248519429999994
mp-22079,AsRh,-0.4901629437499997
mp-22085,DyCuPb,-0.3897116416666666
mp-2209,CeGa2,-0.5837808150000002
mp-22091,NaZr2CoF11,-3.6231415498726656
mp-22092,VSO5,-2.2016279834821426
mp-22094,Tl2Ru2O7,-1.3159577480681823
mp-22095,Ga2Pt,-0.5811238333333328
mp-22106,NdNiO3,-2.35906395225
mp-2211,V3Pt,-0.4283339274999989
mp-22112,Ba2CoWO6,-2.60244374725
mp-22113,Ca2Fe2O5,-2.5722125048611115
mp-22114,ErSiRh,-1.079898344166666
mp-22115,TbSbRh,-1.0154210624999995
mp-2212,ScCo,-0.3703844950000006
mp-22120,YRh3C,-0.5006998326666661
mp-22126,U2S3,-1.741511442375001
mp-22129,DyGaPd,-0.8949662833333333
mp-2213,FeNi,-0.067742879999999
mp-22131,SmGa4Co,-0.505247627222222
mp-22137,DyCoO3,-2.6619120682500004
mp-2214,TmMg2,-0.0496498866666665
mp-22141,BaIn2,-0.4819219133333332
mp-22142,SiSe2,-0.4478001732291664
mp-22145,Sm3(Ge2Ru)2,-0.7435599544444444
mp-22146,In3Pd5,-0.5235882162500003
mp-22147,HfPbS3,-1.5524495898750004
mp-22149,DyGeAu,-0.8309932049999998
mp-2215,ThHg2,-0.2634978183333333
mp-22150,Zr2InCo2,-0.3438642900000005
mp-22151,BaGePt,-0.8974747358333334
mp-22152,NaFeAs,-0.2825554050000001
mp-22154,In2Au,-0.2287092833333333
mp-22156,Hf2InC,-0.7096037800000001
mp-22158,TbCoC,-0.3005728083333328
mp-22159,UNiAs2,-0.5800210699999999
mp-22162,YbNiSn,-0.5864753622222226
mp-22163,NaSn2(PO4)3,-2.542579914761904
mp-22164,PrNiSn,-0.6154401175000004
mp-22165,Ce(CoB)4,-0.470301541481482
mp-22167,Zr6Ga2Co,-0.409676978333334
mp-22169,MoPbO4,-1.9955065791666664
mp-2217,LuCd,-0.3126577949999998
mp-22170,Li4PbO4,-1.9259437335185183
mp-22171,Cu3SbS4,-0.5466173996875012
mp-22174,Zr3NiSb7,-0.5065783600000008
mp-22177,DyInAu,-0.7410740933333338
mp-22179,YTiSi,-0.6729086061111111
mp-22180,Dy(GePd)2,-0.7995480139999998
mp-22181,Gd(GePd)2,-0.7720073779999993
mp-22184,Ba2SmNbO6,-3.4055111200833337
mp-22186,In6Ge2PtO9,-1.7627293361805556
mp-22187,Gd(GeRh)2,-0.9028890419999982
mp-22188,DyCuSn,-0.6080681883333335
mp-22191,HfFeGe,-0.5448641444444446
mp-22192,Si3Ru2,-0.6354099504999994
mp-22196,Dy2Cu(GeO3)4,-2.5333502013157885
mp-22198,Nb2NiO6,-2.627585035833333
mp-22199,KIn5S8,-1.0274516555714288
mp-22200,LiMnFeF6,-2.956422952343167
mp-22204,Co2P,-0.5227963611904762
mp-22205,InN,-0.0903576086899997
mp-2221,Zr2Ag,-0.1058343877777782
mp-22213,MnSn(BO3)2,-2.515898366478183
mp-22214,Rb2RhF6,-2.5148170413488886
mp-22216,In2S3,-0.931001524125
mp-22222,HoSiIr,-1.0804302691666656
mp-22225,CeSiBO5,-3.377339485572916
mp-22228,DyCoSn,-0.4950569058333336
mp-22229,TbInCu4,-0.2704642766666663
mp-2223,GaPt2,-0.5331577208333336
mp-22230,BaPbO3,-2.11803974875
mp-22232,TlInSe2,-0.5204307511718747
mp-22233,Zr4Co4Ge7,-0.6236500443333342
mp-22235,Cs2MnSnTe4,-0.6072353588146546
mp-22236,In3Co,-0.0115369850000002
mp-22239,GeRh,-0.5607794137499997
mp-22243,LiNiAsO4,-1.7706115680952388
mp-22247,ErSiRu,-0.8547672100000009
mp-22249,CeSbRh,-0.991376185833334
mp-2225,Be2Fe,-0.1808861608333328
mp-22250,Mg2SiB2Ir5,-0.6065058318333328
mp-22251,TbGaPt,-1.0963861341666667
mp-22252,LaFe3(BO3)4,-2.6667332766666667
mp-22255,RbInTe2,-0.7017366743749998
mp-22258,HfSiMo,-0.7082107041666662
mp-22259,Yb2Ru2O7,-2.3026015529166672
mp-2226,DyPd,-0.8963004249999997
mp-22260,Y(MnSn)6,-0.1501927539434138
mp-22261,InCuTe2,-0.2683034937499999
mp-22262,CoMoP,-0.6152275653571427
mp-22264,CsSr2Nb3O10,-3.163639978985273
mp-22265,Fe(SbO2)2,-1.7792346639285717
mp-22266,GdB6,-0.4564588114285704
mp-22267,Y(MnGe)6,-0.3223593431741825
mp-22268,ZrPRu,-1.122026830357143
mp-22270,CoP,-0.5836194955357143
mp-22274,HoTiSi,-0.6594509700000005
mp-22275,YSnPt,-1.0786455252777774
mp-2228,ErMg,-0.0687652566666661
mp-22280,PrNiO3,-2.3433423447500004
mp-22282,LaIn2,-0.5028998650000004
mp-22284,SrInPt,-0.7652100663888888
mp-22286,Ag5(PbO3)2,-0.8132996072435896
mp-22287,NbGeIr,-0.5312157150000006
mp-22288,BaCe2CoS5,-2.052190842291667
mp-22290,Mn6Si7Ni16,-0.4342292973424499
mp-22293,PrZnSn,-0.6518052858333329
mp-22295,Ca(Cu2P)2,-0.4486302838775507
mp-22299,TbNiSn,-0.6762757975000001
mp-223,GeO2,-2.0890653086111106
mp-22300,FeCo2Ge,-0.1703380299999999
mp-22302,ZrVP,-1.105414542023811
mp-22303,Rb3InS3,-1.3271605088392855
mp-22304,Cd(InSe2)2,-0.5739950884821425
mp-22305,NaCu3(RuO3)4,-1.3378473854999997
mp-22307,ScSi2Rh,-0.9228184362499992
mp-2231,SnS,-0.7780405040625009
mp-22313,Na2PtO2,-1.3813448465
mp-22315,HfCoSn,-0.4440552255555556
mp-22318,SrAl2,-0.2601812188888885
mp-22319,UB12,-0.2736284192307695
mp-22320,GaRu,-0.3007694149999995
mp-22324,TbGePt,-1.1302118375000003
mp-22325,P2Pb2O7,-2.4274206889448053
mp-22326,Mg4As6Rh7,-0.6521469549019606
mp-22328,K4PbO4,-1.5921554779999998
mp-22329,NaNd2OsO6,-2.75842104775
mp-22330,TlVO3,-2.01651693125
mp-22331,NdTiGe,-0.626304315
mp-22332,TaInS2,-1.1895944090625008
mp-22337,Hf5Ga3,-0.4415571025
mp-22339,ThCoSn,-0.5387553127777783
mp-2234,Er2S3,-2.462827051208333
mp-22342,PbSeO4,-1.4140596933072918
mp-22343,Ce(GeRu)2,-0.6468103130000002
mp-22344,Sn7Ru3,-0.2223185490000006
mp-22346,BaGe3Pt,-0.5731418659999996
mp-2235,YbRh2,-0.6070252338888883
mp-22352,Ba3InRu2O9,-2.271593404416667
mp-22355,Sr2InSbO6,-2.5922868045833325
mp-22356,In2HgS4,-0.8261743067857142
mp-22361,CeReB4,-0.5785995226388891
mp-22367,PdPbO2,-1.1580849256250003
mp-22372,Mn6Ni16P7,-0.4260820016527951
mp-22373,CrPb2O5,-1.7075603845312497
mp-22374,U(CuSi)2,-0.2638007439999995
mp-22376,PrNiSn,-0.609501356111111
mp-22382,TbInAg2,-0.3719432866666667
mp-22384,DyInPt,-0.9940867233333336
mp-22386,InAgTe2,-0.2864773183333335
mp-22387,U2N3,-1.6182961564279992
mp-22390,SrRuO3,-2.1764856380833337
mp-22391,Sr3V2O7,-2.9769099123958327
mp-22394,ThRu3C,-0.2901531020000007
mp-22396,Nb4SiNi,-0.3607172633333337
mp-22397,Nd(GeRu)2,-0.6630155959999996
mp-224,WS2,-1.2607179104166673
mp-22400,MnCu2SnSe4,-0.3259703723787721
mp-22401,Nd2Re3Si5,-0.5644414059999988
mp-22408,CoO,-1.4100283768750002
mp-22417,LiNiPO4,-2.320288818962585
mp-22418,Sr3(SnIr)4,-0.5179914681818176
mp-22419,NdSnPd,-0.919913998888888
mp-2242,GeS,-0.5846442915625003
mp-22420,CuTeO4,-1.2351733716666662
mp-22421,Fe2GeO4,-1.977351249285714
mp-22426,ScSiNi,-0.8894334724999998
mp-22428,SrCeO3,-3.624670230583333
mp-22430,BAsPbO5,-2.082971103906249
mp-22432,Ti4Cu2O,-0.9750536555357132
mp-22434,HfFeP,-1.040644422857144
mp-22435,CeBPt3,-0.8761377266666657
mp-22437,Re6P13,-0.3650904340225577
mp-22438,Ce(SiPt)2,-1.0904602499999996
mp-22440,LuSiIr,-1.1189279366666665
mp-22441,Ba2MgReO6,-2.8495539345833336
mp-22442,Ba2NaOsO6,-2.3982996482500005
mp-22443,VInO4,-2.2248295708333328
mp-22447,Zr3P,-0.8622304852678582
mp-2245,Si3N4,-1.313397095645714
mp-22450,Li2PbO3,-1.7961513353472214
mp-22451,MoPRu,-0.5245252136904762
mp-22453,YbGePt,-1.0224464238888895
mp-22457,K3Na(SO4)2,-2.365807167875
mp-22458,Sr2MnGe2O7,-2.636042339391542
mp-22466,SrIn4,-0.2621239613333334
mp-22467,Sn(PbO2)2,-1.790506017142857
mp-22468,Tb2Fe3Si5,-0.692684129749999
mp-22470,La(FeAs3)4,-0.4039418585294114
mp-22471,Nd2NiB10,-0.5286262664102555
mp-22472,Ba3CuRu2O9,-2.09584185075
mp-22473,NaInSe2,-0.795401219921875
mp-22477,Ta2P,-0.7353683492460306
mp-22479,Zr4Pd2O,-1.2563824512499997
mp-22480,GdScSi,-0.6617030366666654
mp-22481,KIn4,-0.1162021645999999
mp-22482,ErMn12,-0.0103390227586212
mp-22483,NaInTe2,-0.5725594537499998
mp-22484,Ba7MnFe6F34,-3.454438737939066
mp-22485,TbCuSb2,-0.6177453425000001
mp-22486,Tb(MnGe)2,-0.489191961862069
mp-22489,HfCuSi,-0.6069266466666671
mp-2249,HoZn,-0.3486710774999997
mp-22490,Sc3(NiGe)4,-0.7411623377272721
mp-22493,YInAu2,-0.7048732683333334
mp-22495,SmNiO3,-2.386937733916666
mp-22497,HoSiRu,-0.8433026866666656
mp-22505,GdAl3Pd2,-0.850646074999999
mp-22506,Cs6InAs3,-0.3576458527586208
mp-22508,YMn12,-0.001963856091954
mp-2251,Li3N,-0.4625428830950002
mp-22511,Ce2MgGe2,-0.641330439666666
mp-2252,ScB2,-0.8388389805555553
mp-22522,ZrCuSi,-0.6688593366666661
mp-22524,CeP2O7,-3.120668354589287
mp-22528,ThCrB4,-0.5734565255555554
mp-22529,SrInAu,-0.6490791522222222
mp-22531,Ba2GdNbO6,-3.43312822275
mp-22532,TbTiSi,-0.6451366533333326
mp-22533,Ca3MnNiO6,-2.552230814374106
mp-22538,Li8PbO6,-1.9811780653888889
mp-22539,CeNiSb2,-0.7204677100000003
mp-22542,Tm3PbC,-0.5633490940000009
mp-22548,Th2CoB10,-0.620392639102564
mp-22551,UP2(PbO5)2,-2.778663755309524
mp-22554,MnSO4,-2.167470928123364
mp-22555,RhS2,-0.8149916487499999
mp-22561,Pr2ReC2,-0.2312638289999995
mp-22563,Gd(LuS2)3,-2.4660810783750007
mp-22568,V3Ga,-0.1752658262499995
mp-22569,InPO4,-2.480263327678572
mp-22570,Mg5In2,-0.0716514980952379
mp-22574,HgP14Pb,-0.0122440995312498
mp-22576,Mn(SbO3)2,-1.9907513681239075
mp-22579,MnSeO4,-1.5286488546598196
mp-2258,Cu3Au,-0.0362234275000004
mp-22583,KInP2S7,-0.9253652456379872
mp-22585,GeRh2,-0.4770977191666669
mp-22594,Ba2LuIrO6,-2.82555736575
mp-22596,Ni3(PbS)2,-0.5106146137500005
mp-22598,In2O3,-2.00618669525
mp-22599,NdCoO3,-2.582367323750001
mp-226,FeS2,-0.9477331412499992
mp-2260,FePt,-0.2324707799999998
mp-22600,Sc3P2,-1.2806426094285712
mp-22602,CaIn2Au,-0.52288315375
mp-22607,Zn(InSe2)2,-0.5931246234821427
mp-22608,CaVO3,-2.9434587282500004
mp-22613,Nb3FeS6,-1.4022903408750012
mp-22615,Gd(SiAu)2,-0.5870526660000003
mp-22617,YNiSn,-0.6917044761111105
mp-22618,Y(CuO2)2,-2.07561287047619
mp-22619,NiP2,-0.3717118048809524
mp-22622,YbCoB4,-0.4425144258333328
mp-22626,OsF6,-2.061909716734285
mp-22627,Dy2(Ga3Ru)3,-0.5401716517857145
mp-22628,CsNO3,-1.5000106978122063
mp-2263,ScIr2,-0.7574568133333331
mp-22630,Sc2PbS4,-1.8900605325000004
mp-22631,Co2N,-0.0605854091266664
mp-22633,Pb3O4,-1.455742163214285
mp-22634,K4SrU3O12,-3.269863750183333
mp-22636,TaNiGe,-0.4293905141666663
mp-22637,HfNbP,-1.0253374670238111
mp-22638,Ni2GeO4,-1.5641616885714282
mp-22639,U(NiP)2,-0.7585815614285707
mp-22642,Zr2Se,-0.9289184755034732
mp-22645,PrSnPd,-0.9046000108333332
mp-22646,InPd2,-0.5183105166666664
mp-22647,TmCrO4,-2.7896011997222225
mp-2265,TbCo2,-0.1530261433333327
mp-22658,Co2NiS4,-0.8426828089285721
mp-2266,YbAg,-0.4150604699999998
mp-22660,InAgO2,-1.4042888714583333
mp-22661,InAg(PS3)2,-0.7108683689226197
mp-22662,TiGaPt,-0.8138518549999993
mp-22664,HoRh3C,-0.5324669199999988
mp-22665,AgAsPbS3,-0.5842042025347224
mp-22668,YCoO3,-2.661207711916667
mp-2267,HoB2,-0.5925318388888883
mp-22670,HoGeRh,-0.9953217574999988
mp-22678,Ce2Sb,-0.7435509016666657
mp-2268,TbAg,-0.3107214516666667
mp-22682,In2Pt,-0.4668848766666666
mp-22687,BaIn4,-0.3528859480000001
mp-22691,InSe,-0.506447568671875
mp-22693,Te2W,-0.1058712266666657
mp-22694,LiPPbO4,-2.510767198069727
mp-22695,NdSnPd,-0.91338301
mp-22696,NdInCu,-0.3851747466666677
mp-22697,Ni3(PO4)2,-2.0340001943956048
mp-22698,DyFeSi,-0.6388372399999996
mp-227,SmCu5,-0.1747042938888885
mp-22700,V3Se4,-0.7282216556249992
mp-22701,ScFeSi,-0.683083690833333
mp-22703,Ni8Ge2B3,-0.3204920953846161
mp-22704,YIn,-0.4844762916666667
mp-22708,Th3Co3Sb4,-0.7234694260000012
mp-22709,TaNiB2,-0.6346387766666659
mp-2271,NaPt2,-0.369164635
mp-22712,YPd2Pb,-0.701615733333333
mp-22713,Ce2Ni2Sn,-0.5006922979999999
mp-22714,LuCoC,-0.3642383266666667
mp-22717,CaIn2Pd,-0.6161169850000001
mp-22718,TbInAu,-0.744728133333333
mp-2272,Sr6Li23,0.0051267850574713
mp-22720,RbSr2Nb3O10,-3.1582989658333336
mp-22722,NbSiPd,-0.6886537541666655
mp-22723,DyInIr,-0.7064447300000004
mp-22724,CeZrF7,-4.194598802592223
mp-22725,TiInCu2,-0.1093213974999987