material_id,pretty_formula,formation_energy_per_atom
mp-30735,Ho5Sn3,-0.7218942718749997
mp-30736,HoZn3,-0.358937900625
mp-30737,YMgAg,-0.2928664022222228
mp-30738,LiIr3,-0.2092505166666676
mp-3074,KAgO,-1.0428016316944444
mp-30743,TmIr2,-0.8443129711111119
mp-30744,IrW,-0.3082192200000015
mp-30745,Ir3W,-0.360135767500001
mp-30747,Zn11Ir2,-0.1985302615384616
mp-30748,Zr3Ir,-0.5230027781250008
mp-30749,Zr5Ir3,-0.7415165554166675
mp-3075,TlGeS2,-0.7251304265625005
mp-30750,CeAl4Ni,-0.5357490333333329
mp-30752,La2Mg17,-0.0631134592982456
mp-30753,LaPd5,-0.5810528541666665
mp-30754,LaTlPd,-0.6884296972222219
mp-30755,La2Sn5Rh3,-0.7495451759999995
mp-30756,LaSn3Ru,-0.5415531017500002
mp-30757,La5Sn4,-0.7887486513888883
mp-30758,Li2MgPb,-0.2550846466666665
mp-30760,Li3Pb,-0.3271379224999999
mp-30761,Li7Pb2,-0.3182732296296294
mp-30763,LiPd2Pb,-0.4232408066666666
mp-30765,LiPt7,-0.2216590608333328
mp-30766,Li5Sn2,-0.4016873761904759
mp-30767,Li7Sn2,-0.3776989062962962
mp-30768,Li7Sn3,-0.3988470321666664
mp-30769,Li13Sn5,-0.3976917009259257
mp-3077,SmAlGe,-0.6603747977777777
mp-30771,Lu6Ni2Sn,-0.4475139505555556
mp-30774,MgNi2Sn,-0.2586319433333335
mp-30775,PrMg2,-0.1100438622222223
mp-30776,PrMg12,-0.0420186334615385
mp-30777,MgPt3,-0.5788400708333326
mp-30778,Mg5Rh2,-0.3922971813095235
mp-3078,CdSiAs2,-0.1245377112499994
mp-30780,SrMgSn,-0.569807350833333
mp-30782,Sr6Mg23,-0.0715849778160919
mp-30784,Mg2Zn11,-0.0678536580769231
mp-30787,MoRh3,-0.2543778112500003
mp-3079,CaTa4O11,-3.4396876752343752
mp-30791,Ho3(AlNi3)2,-0.5754747522727276
mp-30792,NaPb,-0.1652371581249996
mp-30794,Na15Sn4,-0.1614853271052632
mp-30795,Na2Tl,-0.1192906483333331
mp-30797,Nb5Te4,-0.3532668166666666
mp-30798,NbZn2,-0.1619582449999998
mp-30799,NdTlPd,-0.6479360844444442
mp-308,U3O8,-3.717908958181818
mp-3080,Ca5(Ga3O7)2,-2.7705785017000006
mp-30800,NdZn2,-0.3669107583333335
mp-30801,NdZn5,-0.3056811175000001
mp-30802,NdZn11,-0.2184370083333335
mp-30805,SrNiSn3,-0.4461312473333336
mp-30808,TbNi5,-0.3250412050000004
mp-30809,Th7Ni3,-0.2781768980000009
mp-3081,BeAl2O4,-3.361656958571428
mp-30810,Th2Ni17,-0.2523806757894742
mp-30811,Ni4W,-0.1079790160000001
mp-30815,LaAl3Pd2,-0.8506638241666664
mp-30816,Li2AlPd,-0.5358100383333335
mp-30817,LiAl2Pd,-0.6412659891666666
mp-30818,Li2AlPt,-0.7033226533333332
mp-30819,LiAl2Pt,-0.8270094016666665
mp-3082,CaSO4,-2.788122316631944
mp-30821,LiAl2Rh,-0.7143409541666665
mp-30828,Sr2Pb,-0.5404306002777775
mp-30834,SrSn3Pd,-0.5907504653333326
mp-30835,TaPd2,-0.4648659366666668
mp-30836,TaPd3,-0.48672117
mp-30837,TbTlPd,-0.6636661166666669
mp-30838,ThPd,-0.7688238899999993
mp-3084,Sc2Ni12P7,-0.7552431761904757
mp-30840,Ti2Pd3,-0.606869313
mp-30841,UPd3,-0.5438150743749999
mp-30842,ZrPd3,-0.8218912312500004
mp-30843,Sr7Pt3,-0.6320261809166666
mp-30845,SmPt3,-0.9014929133333328
mp-30846,Sn3Pt2,-0.5133765070000003
mp-30847,TiSnPt,-0.8315634866666658
mp-30848,USnPt,-0.5044381700000002
mp-30849,TaPt2,-0.746956711666666
mp-30850,TaPt3,-0.7092689849999996
mp-30851,Ti3Pt5,-0.940656685625
mp-30852,TiPt8,-0.4347156555555556
mp-30853,Tl2Pt3,-0.1041583749999993
mp-30854,UPt2,-0.6989514350000002
mp-30855,UPt3,-0.6380567237499992
mp-30856,ZnPt3,-0.3127598337499995
mp-30857,Zn12Pt7,-0.48774983
mp-30863,Sc57Rh13,-0.4251504264999994
mp-30864,Y2Sn5Rh3,-0.7277247891666662
mp-30865,TmRh2,-0.7823415394444453
mp-30866,Rh3W,-0.2814252049999997
mp-30867,ScRu,-0.5430777075000002
mp-30870,SmZn12,-0.193774224871795
mp-30871,Ta3Sn,-0.0367097150000006
mp-30872,ThSn2,-0.5465436616666673
mp-30874,Th5Sn4,-0.5980196716666666
mp-30875,Ti2Sn,-0.33918468
mp-30877,SrTl2,-0.3391068822222222
mp-30878,TbTl,-0.347159
mp-30879,Tb5Tl3,-0.3006518368750002
mp-3088,LaBRh3,-0.712149542666667
mp-30880,Tb2Zn17,-0.2479967852631579
mp-30883,V4Zn5,-0.0472187105555556
mp-30884,YZn3,-0.3719577058333336
mp-30885,YZn5,-0.2959789647222222
mp-30886,YZn12,-0.1861208687179487
mp-30888,ZrZn22,-0.0702854380434784
mp-30890,Hg3SO6,-1.2651868453958328
mp-30892,Ba4Bi3,-0.9132761192857144
mp-30893,Sr4Bi3,-0.8787546566666664
mp-30898,Ce2B2Ir5,-0.758975497407407
mp-309,ThAg2,-0.1727988055555555
mp-30900,TaBiO4,-2.7084238620833325
mp-30901,V2Te2O9,-1.931694338173077
mp-30905,Ba3(BN2)2,-1.1883081659651853
mp-30906,Sr2Al6O11,-3.466793047214911
mp-30908,Ag3PSe4,-0.1049067216183035
mp-30909,Sm(GaPd)2,-0.7846385046666668
mp-30910,Mg2Ga5Cu6,-0.1859137371794868
mp-30919,LaGa6Pd,-0.531090408124999
mp-3092,DyB2Ru3,-0.4733358894444445
mp-30923,Ga5Rh3,-0.6075187074999997
mp-30926,LaB5O9,-3.0920391246944425
mp-30927,CsAs4F13,-2.593846064355613
mp-3093,ErB2Ru3,-0.4817799244444447
mp-30930,AlI3,-0.6709289799999998
mp-30931,Na4SiSe4,-0.9628279974305556
mp-30933,ZrBi,-0.3756827783333338
mp-30934,As(S8I)3,-0.5932291142857145
mp-30938,PAuS4,-0.6126242110119046
mp-3094,SrAl2O4,-3.467995678809524
mp-30940,Cd2Te2O7,-1.5302008396590911
mp-30941,Cd2(TeO3)3,-1.5200074663392855
mp-30942,Ba6Mg11F34,-3.965226315237778
mp-30943,MgPSe3,-0.6055961117872023
mp-30944,Ce4Ga5Br2,-0.8824957945454543
mp-30945,Ga2PdBr8,-0.7132258754545453
mp-30946,Ga2PdI8,-0.4373106836363638
mp-30947,Na3FeO3,-1.7717234023214286
mp-30949,Sr3SiO,-1.460432049250001
mp-30950,Sr3GeO,-1.56117524825
mp-30952,GaCl3,-1.553370372445
mp-30953,GaBr3,-0.8370526731249999
mp-30954,GaI3,-0.4998462243749999
mp-30957,Pr(PO3)3,-2.9964649859203294
mp-30959,LiHS,-1.0399385732205555
mp-30961,Ca7Tl3N2,-0.6954172516466665
mp-30962,K4Ge9O20,-2.158437734151516
mp-30963,Er2Zn17,-0.2315024265789474
mp-30964,Dy2Zn17,-0.2443879597368423
mp-30967,Tb12Co7,-0.1602764768421056
mp-30969,Ho12Co7,-0.1943272768421055
mp-3097,Tb(SiRh)2,-1.132622644
mp-30970,Er12Co7,-0.2115144613157889
mp-30971,CuTe2Cl,-0.4183394808150003
mp-30972,Na2Sb4O7,-1.86559997221154
mp-30973,Ni3(BiSe)2,-0.2336934278125012
mp-30974,CsWCl6,-1.6240448896863793
mp-30975,Na3BO3,-2.278008946011905
mp-30977,B5H6Br,-0.2140159975738888
mp-30978,KAl2Br7,-1.2969164750500002
mp-30979,GaPS4,-0.8580418285119045
mp-3098,AlCuO2,-2.424819820625
mp-30980,NaYO2,-3.142311561458333
mp-30981,Te(HO)6,-1.3865257451323076
mp-30983,CaP4O11,-2.7978743106584814
mp-30984,S(IO3)2,-1.225041160069444
mp-30986,Zn3S2O9,-1.96512993625
mp-30988,KBiO2,-1.7359586163749996
mp-30989,Sn(NO3)4,-1.0501700046776468
mp-30990,K6Si2O7,-2.494472991116667
mp-30991,Ba(IO3)2,-1.556343196388889
mp-30993,LaIO,-3.048301638750001
mp-30996,RbAuBr4,-0.7632667929166667
mp-30997,ZrTlF5,-3.512291471207144
mp-30998,Ti(NO3)4,-1.329500131442353
mp-30999,CuCl2,-0.9038369288400002
mp-31001,KSb3O5,-1.8499391765833328
mp-31002,Rb2Te5,-0.5396218535714284
mp-31003,B10H13I,-0.174361627464305
mp-31008,Na14Al4O13,-2.2728698385887096
mp-31010,Ca2As3,-0.8814637292500003
mp-31011,Y2Si2Rh,-0.9827478273333328
mp-31012,K2(NbBr3)3,-1.1683075607857143
mp-31013,U(BO3)2,-3.1665961254629624
mp-31014,ZrP2S7,-1.0816956534017863
mp-31015,Ta3SBr7,-0.9937344221022733
mp-31016,Ca4Nb2O9,-3.3459684267500003
mp-31017,Ce4B2N5,-1.5804777698696972
mp-31018,SrAgBi,-0.6040492683333335
mp-31019,Al45Cr7,-0.1166055765384612
mp-3102,TaCuS3,-1.1637815098749995
mp-31020,AsI5F6,-1.463081704345
mp-31022,Hf2Si4Ru3,-0.842261489722222
mp-31024,Sc5CCl8,-2.1686718665057145
mp-31026,Ba6Zn7F26,-3.349044875793333
mp-31027,Sc3(ReSi2)2,-0.7237401630555556
mp-31029,Nd2Ni5B4,-0.4689083212121209
mp-3103,Nb4AlC3,-0.519727778750001
mp-31030,KHo2F7,-4.242291775383
mp-31033,HfF4,-4.150285777285334
mp-31034,ThF4,-4.5224341982853336
mp-31037,CuTe2I,-0.1205120475000001
mp-31038,CuSe2Cl,-0.4348537838618744
mp-31039,Rb6Te2O9,-1.7968081897794113
mp-3104,BaZrN2,-1.4362681661900003
mp-31040,NbCl4,-1.731249992608
mp-31043,H5NF2,-1.3815924159825
mp-31045,KAuI3,-0.6636032011000002
mp-31046,Ho3CrB7,-0.6021042525757565
mp-31049,NdO2,-3.1604750625
mp-31050,Cl2O7,-0.4466248839188888
mp-31051,CeSi4Ni9,-0.5840438367857145
mp-31052,LaBPt2,-0.9237218783333342
mp-31053,Ag2S,-0.276183144930556
mp-31054,La3(VN3)2,-1.52605586448
mp-31055,Sc3InN,-1.1949421994759994
mp-31056,Dy3InN,-1.069925350476001
mp-31057,Ho3InN,-1.0791563144759997
mp-31058,Er3InN,-1.0861053884759997
mp-31059,Ba(AlGe)2,-0.3945516580000003
mp-31060,Rb4(BS)9,-1.036655930142046
mp-31062,Y(PO3)3,-3.0249461982921244
mp-31064,B6H10N,-0.3789262649164701
mp-31065,Sc2(SeO3)3,-2.2696065816629463
mp-31066,LiUN2,-1.3773849766066668
mp-31067,Nd(ClO4)3,-1.10776148686125
mp-31068,P2Pb4O9,-2.2318282870595234
mp-31069,P2Pb8O13,-1.964754551451864
mp-31070,As8S9,-0.4816089295955889
mp-31071,Ba2Tl7Au,-0.2919616905000001
mp-31072,Sc6Te2Rh,-0.797871435555556
mp-31073,Na3B7O12,-2.775281365378788
mp-31075,Hg3(SeBr)2,-0.3605327278125
mp-31076,Tl2TeBr6,-0.6276048666666666
mp-31077,Tl2TeI6,-0.3911321116666665
mp-31078,CeSiRh2,-1.0061523699999997
mp-31079,Ce3(Al3Ru)4,-0.6467784868421061
mp-3108,Lu(SiRh)2,-1.1062953759999998
mp-31080,YAlSi,-0.6321429111111107
mp-31081,Sc(MnAl2)4,-0.3348851741246691
mp-31083,PrSi2Ru,-0.830380775000001
mp-31084,ZrGe2Rh,-0.7266993714583331
mp-31087,Tb2Pd2Pb,-0.8412882499999995
mp-31088,Dy2Pd2Pb,-0.8436831050000002
mp-31089,Ho2Pd2Pb,-0.8455001419999995
mp-31090,Er2Pd2Pb,-0.8468851769999993
mp-31091,Lu2Pd2Pb,-0.8434322260000002
mp-31093,Dy2CoSi2,-0.7627902099999992
mp-31095,Er2FeSi2,-0.7207022319999986
mp-31096,Li3AlH6,-0.3606294116719997
mp-31097,KAlH4,-0.2962883462466663
mp-31098,YB2Ir3,-0.6880395650000004
mp-31100,CeIr3,-0.6260687045833334
mp-31101,Gd3ReO7,-3.3091076971590923
mp-31103,Ni3Te2,-0.1751263350000002
mp-31104,KBi,-0.3516834558749999
mp-31105,RbBi,-0.3432492665624997
mp-31107,As2Pb8O13,-1.6443241446195649
mp-31108,Pr12InPt7,-0.8599227742499999
mp-31109,Ho12InPt7,-1.02298971675
mp-31110,Sm3GaO6,-3.51258984175
mp-31112,Tb3GaO6,-3.58953988575
mp-31113,Dy3GaO6,-3.60411863725
mp-31114,Ho3GaO6,-3.6171584172500006
mp-31115,Er3GaO6,-3.63008577975
mp-31116,LaScO3,-3.9597406997499993
mp-31117,NdScO3,-3.90564214425
mp-31118,SmScO3,-3.9306198104166654
mp-31122,Er2MoO6,-3.246542900555556
mp-31123,Tm2MoO6,-3.2573919537962945
mp-31124,Y2MoO6,-3.210102471574074
mp-31127,Sr3P4O13,-3.1323887067767857
mp-31128,La6Mo8O33,-2.770018630132978
mp-31130,ErNi7B3,-0.4302365384090917
mp-31132,Hg4OF6,-1.539497988035455
mp-31134,PtCl3,-0.8412850972366668
mp-31136,Lu2NiSn6,-0.4022429811111105
mp-31139,TbNi,-0.4360100987499997
mp-3114,Tb2(MoO4)3,-2.726209419852941
mp-31144,Rb3Au7,-0.2764668182500003
mp-31147,BaZnSi,-0.3759706983333331
mp-31148,BaZnSn,-0.5315563483333335
mp-31149,Ca3BiN,-1.0950522674759997
mp-31150,Sr2Bi3,-0.7066974971666667
mp-31152,CaGaPt,-0.9215232199999998
mp-31153,CaGePt,-0.9108891999999996
mp-31154,Ca5Hg3,-0.4392514312499997
mp-31158,Ca7Ni4Sn13,-0.4999634572916669
mp-31160,CaZnSn,-0.5246938083333337
mp-31163,Ce2Si3Rh,-0.897595976666666
mp-31164,Ce7Ru3,-0.2720166155000001
mp-31166,DyTlS2,-1.8178757540625003
mp-31167,Er5Si3,-0.6997878912499989
mp-31168,Li2AlAg,-0.2449699341666664
mp-31169,ScAlAg2,-0.3327303979166665
mp-31170,Cd2AgAu,-0.1424559833333334
mp-31171,Zn2AgAu,-0.1561287083333331
mp-31172,Ca5Ag3,-0.2878300312499999
mp-31176,HoNiSn,-0.6720109600000003
mp-31179,Ho(Al2Fe)4,-0.4315779976923076
mp-3118,Mg3TeO6,-2.5590719452500004
mp-31180,DyAl4Ni,-0.552888426666667
mp-31182,ErAl2Ni,-0.6489678249999997
mp-31183,ErAl4Ni,-0.5422787374999997
mp-31185,MnAlFe2,-0.1867782724137932
mp-31187,TiAlFe2,-0.4532344174999991
mp-31189,DyBe13,-0.1861402425000007
mp-31190,Lu2Ga3Co,-0.5788324854166665
mp-31191,Sc3Co2Ge3,-0.743797630625
mp-31194,Li13(Ga7Cu2)3,-0.2863719337916667
mp-31197,Er(FeSn)6,-0.1515696459615386
mp-31198,Er3Ru2,-0.3106185230000008
mp-312,ThIr5,-0.4457132883333337
mp-31202,Pr(SiAu)2,-0.6193328290000004
mp-31203,Pr(SiAg)2,-0.4392916323333331
mp-31204,Nd(SiAg)2,-0.4368435733333335
mp-31205,Zr3Fe,-0.1084596937500013
mp-31207,Zr5GaSn3,-0.6626757922222224
mp-31208,LiIn2Ir,-0.3131625841666672
mp-31212,K2MgF4,-3.3964682034419047
mp-31213,Sr4Ti3O10,-3.51843484995098
mp-31214,Ti3P,-0.8582222902678573
mp-31215,AgPdF6,-1.5497262194341666
mp-31216,BaCd11,-0.17540517875
mp-31220,AlSiTe3,-0.2683500430000002
mp-31225,Pr2Mo2C3,-0.1752087492857147
mp-31229,Na4(BSe)9,-0.4947025857315342
mp-3123,PPdSe,-0.3846828419717258
mp-31231,Sr5Mo2N7,-1.099542040356667
mp-31232,In2PO5,-2.2935687912276785
mp-31233,Ca4P7Ir8,-0.892561861315789
mp-31234,Ca4As7Ir8,-0.6425195778947372
mp-31235,BaNaBi,-0.7665655538888889
mp-31237,CuAsF7,-2.225077954814444
mp-31238,Ba3(SbO3)2,-2.581283752196969
mp-31243,BaAs2,-0.7868874505555554
mp-31245,Tb2Te4O11,-2.314460158455882
mp-31249,La2Te4O11,-2.3138092796323537
mp-3125,K3Zn2F7,-2.8636171193608333
mp-31250,BiBO3,-2.3003678834166656
mp-31252,La5(AlBr)4,-1.107531556923077
mp-31253,Ga2Ir,-0.4508738877777776
mp-31256,U(SbO3)2,-2.5869884052777774
mp-31258,Pr2MoC2,-0.1507331769999993
mp-31259,Bi(IO3)3,-1.017769216442307
mp-31263,In5S5Cl,-0.9361266648986372
mp-31266,YPS4,-1.4727521428174617
mp-31269,Na2S2O7,-2.192726531363636
mp-31273,La2CuS4,-2.019342990357144
mp-31275,Ba(TeP2)2,-0.5146777945408166
mp-31277,Sn4Ir,-0.2186256755000002
mp-31278,Ca3(Bi2Pd)4,-0.5278280733333333
mp-31279,Rb4P21I,-0.3085753219230774
mp-3128,ErCoSi2,-0.7711695900000004
mp-31280,K4P21I,-0.3020914237307694
mp-31281,SrSnAu,-0.7459843905555559
mp-31284,NaSn5,-0.0774948250000004
mp-31285,Cs2PdSe8,-0.5045558124647332
mp-31286,K3Bi,-0.3660015418333333
mp-31287,Tl3PdBr5,-0.702873650277778
mp-31288,La5Pb3I,-0.7551190922222225
mp-31289,Bi5NO10,-1.53379630343
mp-3129,ScSi3Ni,-0.6222550909999989
mp-31292,Rb2PdSe16,-0.2760357243421053
mp-31294,Sr2In3Rh2,-0.4923883347619048
mp-31295,La3(Sn3Pd2)2,-0.8321049328846153
mp-31297,ScInPt,-0.905873285
mp-31298,ErSnRh,-0.9200108622222218
mp-31301,LiSn4Au3,-0.2909733964583334
mp-31303,Pr4Se3N2,-1.7924240951990271
mp-31304,Zr(TeCl)6,-1.068954742273846
mp-31305,Hf(TeCl)6,-1.0923358334276925
mp-31307,Ba2SnSe5,-1.218959935527344
mp-31308,KTaS5,-1.2849918251607144
mp-31309,RbInSe2,-0.9148133717968752
mp-31310,Zr3(Mn2Si3)2,-0.6615104821054383
mp-31311,Ga9Ir2,-0.3109363081818185
mp-31312,Ga9Rh2,-0.3498230854545447
mp-31313,K3PSe4,-0.8704668355558036
mp-31314,K2PSe3,-0.8203395561004468
mp-31317,La3PbI3,-1.1473680400000004
mp-31318,Nd2TeO6,-2.958072794166667
mp-31320,Nd(C2N3)3,-0.2097814363387513
mp-31321,La(C2N3)3,-0.2272609625887494
mp-31322,La6OsI10,-1.3402738276470587
mp-31324,Li2In,-0.2859340361111113
mp-31326,Mg2In,-0.075553302222222
mp-31328,MnInPd2,-0.3948770749137926
mp-31330,NdInRh,-0.7078526533333331
mp-31339,ScInPd2,-0.83480106875
mp-31347,YInRh,-0.7559913266666661
mp-31348,Sc2In,-0.3741608199999995
mp-31352,Er2(SeO3)3,-2.361999060591517
mp-31354,Pr3OsO7,-3.0751615553409097
mp-31355,Sr3Tl2O6,-2.234445259772727
mp-31356,Sr3MoN4,-1.108696784471249
mp-31358,RbBO2,-2.6298947220833337
mp-31360,K2Ta3Cl9,-1.8674412396671431
mp-31362,Na3YCl6,-2.3544609587893333
mp-31363,K2TaCl6,-1.9941968039511115
mp-31364,Ce(Al5Ru)2,-0.5155505823076931
mp-31369,Gd2B4O9,-3.2712087556388885
mp-31373,H18SO12,-1.4701815463962895
mp-31374,H30S2O21,-1.4751196590773592
mp-31378,Cs2Cr4O13,-1.7855616402427397
mp-31379,Zr2Sb,-0.6457698500000006
mp-3138,Na8SnSb4,-0.3951215330769233
mp-31380,SmPd,-0.8255308716666665
mp-31381,Nb21S8,-0.7244047343103448
mp-31383,Hf6CoBi2,-0.2510841049999991
mp-31385,Er5Sn3,-0.715246514375
mp-31386,HoGaPd,-0.8975917774999994
mp-31387,ErGaPd,-0.9002187383333329
mp-31394,Ca7Sn6,-0.6509462951923077
mp-314,Th3Ge2,-0.6977380180000011
mp-31402,Sm2GeRh3,-0.849304617777778
mp-31407,Ba5In4Bi5,-0.6471324299999998
mp-31408,Al4(B2O5)3,-3.09264685795
mp-3141,ErInRh,-0.7621820777777776
mp-31412,PrSnAu,-0.8355591416666671
mp-31413,TbSnAu,-0.8327656516666669
mp-31414,DySnAu,-0.8235842983333335
mp-31415,La3TaO7,-3.836145278977274
mp-31416,Ho3TaO7,-3.885661303522729
mp-31417,Nd3TaO7,-3.756198635795455
mp-31418,La(SbO3)3,-2.321910358942307
mp-31419,LaSb5O12,-2.1929028175000003
mp-3142,Ca(NO3)2,-1.6191116560844443
mp-31420,CeAgSn,-0.4717962177777774
mp-31421,PrAgSn,-0.6271364161111114
mp-31422,TbAgSn,-0.6096035727777777
mp-31423,Ho3(CuSi)4,-0.6390812954545453
mp-31426,HoInNi,-0.5022221677777784
mp-31427,ErInNi,-0.5036444699999999
mp-3143,Na2SO4,-2.3133104304464283
mp-31430,Na2In,-0.1168066045833334
mp-31436,TbGe2Pd,-0.776556883125
mp-31438,YZrSb,-0.8206566594444441
mp-3144,HoNbO4,-3.5844261141666665
mp-31440,LuZrSb,-0.7355039300000001
mp-31441,Li2GaIr,-0.4391546283333332
mp-31442,Li2InRh,-0.3817716933333335
mp-31443,Li2InIr,-0.2896542183333337
mp-31447,TbAgPb,-0.4173092461111108
mp-31449,HoAgPb,-0.3887643244444441
mp-31451,ZrCoBi,-0.4221872916666669
mp-31454,TaSbRu,-0.3789772916666673
mp-31457,ZrSbRu,-0.5668531016666675
mp-31462,Er5BiPt2,-0.93256703625
mp-31463,Tb5Bi3,-0.700184615625
mp-31464,Dy5Bi3,-0.6835078653125004
mp-31465,Ho5Bi3,-0.6651400046874993
mp-31466,Er5Bi3,-0.6454124659374996
mp-31467,Ga3Pd7,-0.5900591060000003
mp-31468,LiCaN,-0.7783609913488885
mp-31469,Hf5CuSn3,-0.3845691133333339
mp-3147,Er(SiAu)2,-0.520019568
mp-31471,K3PbAu5,-0.3223612476666666
mp-31472,Rb5Hg19,-0.2140558728124999
mp-31473,K2Hg7,-0.2146128451111111
mp-31474,Rb2Hg7,-0.2157065983333333
mp-31475,Er4(Al8Pt3)3,-0.9036966399999996
mp-31479,Ca3(GaPt)2,-0.8603939121428569
mp-31480,Ca3(GaPd)2,-0.7174631489285714
mp-31481,Ca3Ga3Ir2,-0.6237628534375004
mp-31483,Na5TlSn3,-0.2007469408333331
mp-31484,K4GaAu8,-0.3395327709230773
mp-31485,Ga5Pd13,-0.5518260377777777
mp-31486,K2SnBi,-0.3407808633749996
mp-31488,Li3NbO4,-2.724732105625
mp-31489,PNF2,-2.0736812083328564
mp-31491,Sm(GePd)2,-0.8321051106666666
mp-31492,CeGaNi,-0.6139718061111112
mp-31493,RbGa3,-0.1675593385416665
mp-31496,Li2Sn2Au,-0.4496610176666668
mp-31498,BaPt,-0.7490768524999996
mp-315,PbF2,-2.7017004307933328
mp-31502,ScCd7,-0.1212093462499999
mp-31503,Mg9Sn5,-0.1835993039285719
mp-31507,Sb2Te4Pb,-0.2023556099999999
mp-31508,KPb2Br5,-1.143239542875
mp-31509,BaIn,-0.4201379125
mp-3151,Li3TaO4,-2.8587572290624994
mp-31512,Rb7(FeO4)2,-1.5922164755882358
mp-31513,Nb2Co4O9,-2.176768182083332
mp-31514,Ba3Nb2CoO9,-3.04629382975
mp-31516,Co(ReO4)2,-2.07091666590909
mp-31517,Ta2CoO6,-2.950154697499999
mp-3153,Na4Ge9O20,-2.1329106025757585
mp-3154,Sm3Sb5O12,-2.6387738742500004
mp-3155,Sc3FeC4,-0.4352222393750011
mp-31557,LiCo6P7O24,-2.35006326741228
mp-3158,Li2SbPt,-0.6773364195833338
mp-3159,Al2CdSe4,-0.8134542456249996
mp-316,MnV,-0.2848886748275863
mp-3160,Pr2Si2O7,-3.610477669886364
mp-3161,LiAlSi,-0.2155721772222219
mp-31624,Sr2TaCrO6,-3.2341918048333325
mp-31627,Ba2NbCrO6,-3.0667703152499994
mp-31629,Ta2CrO6,-3.0585223152777763
mp-3163,BaSnO3,-2.59996960075
mp-31630,Ba2TaCrO6,-3.1697882442499994
mp-3164,BaSO4,-2.828024606770833
mp-3166,Th(SiOs)2,-0.7759764539999991
mp-3167,Hg2GeSe4,-0.2343741370535715
mp-317,SnRh,-0.4841530512499998
mp-3172,Ag3AuSe2,-0.0866731061979167
mp-3173,CaAlSi,-0.3875414433333333
mp-3175,BaTi4O9,-3.5235556525892844
mp-31755,Ta2FeO6,-3.041720638055556
mp-31756,Ba2FeReO6,-2.543224716250001
mp-31758,Ba3NbFe3(SiO7)2,-2.8814307316304344
mp-31760,Sr2TaFeO6,-3.109857187083333
mp-31763,Ca2FeReO6,-2.6132136002500004
mp-3177,Nd(CuGe)2,-0.5386235300000003
mp-31780,Fe4(PO4)3,-2.398985183984962
mp-3179,Tb3(CuSi)4,-0.6342247245454544
mp-318,SrIr2,-0.2774506405555558
mp-3180,Ta2Te2O9,-2.5090587841346146
mp-3182,Th3B2C3,-0.420414993333333
mp-3183,DyBRh3,-0.8100674916666663
mp-3186,TbB2Ru3,-0.4678786244444453
mp-3187,BaCeO3,-3.5997870397500003
mp-3188,Zn(SbO3)2,-1.8949428113888889
mp-319,Sm2Tl,-0.2683603705555549
mp-3190,Er(FeB)2,-0.4509341193333327
mp-31901,Mn4Nb2O9,-2.554234255247379
mp-31907,Mn(ReO4)2,-2.2197976707377425
mp-31908,Mn3Nb6O11,-2.4611528285297752
mp-3191,Ho(FeSi)2,-0.6799926279999979
mp-3193,Na2Si2O5,-2.914916060694444
mp-3194,Tb2Al3Si2,-0.5514303471428563
mp-3197,TbAlPd,-0.874186922222222
mp-3199,CuSe2O5,-1.1393400938671876
mp-32,Ge,0.0
mp-3201,Li2GaPd,-0.5519141683333335
mp-3202,BaNi9P5,-0.667552620523809
mp-3203,NdTaO4,-3.688254175000001
mp-3204,YbSnPd,-0.8796323730555553
mp-3207,Sr(NiGe)2,-0.4710235593333337
mp-32077,Mo2(PO4)3,-2.4930744206302524
mp-3208,ZrGeTe,-0.7846863666666669
mp-321,RhPb2,-0.0789843749999998
mp-3210,Ca(CoP)2,-0.8390335244285716
mp-3211,Nd2SO2,-3.490200769124999
mp-3216,Li2ZrN2,-1.270125747618667
mp-3218,Er(SiPd)2,-0.9317655339999996
mp-3223,ThB2Ru3,-0.5140294561111117