material_id,pretty_formula,formation_energy_per_atom
mp-1105896,La5Pb3,-0.5514924875
mp-1105906,Lu6GaNi2,-0.4119793827777774
mp-1105911,TiPd3,-0.6523083387499993
mp-1105912,Ce2AlGe6,-0.4414522283333326
mp-1105915,CsSnF3,-2.803893364300207
mp-1105923,Ho2Si4Mo3,-0.6820145249999996
mp-1105925,La7Pd3,-0.5219107185000006
mp-1105931,Pr(TmS2)3,-2.4802348698750007
mp-1105932,Li2MgSi,-0.2471805222916665
mp-1105933,LaCrSe3,-1.29035718740625
mp-1105938,K2Dy4Cu4S9,-1.7352846912697373
mp-1105939,Pr(Ge3Pt)4,-0.3894869149999995
mp-1105940,Ba(InP)2,-0.5569440234285714
mp-1105952,NaFeSO4F,-2.3190296996018755
mp-1105955,Er3Cu3Sb4,-0.6923199709999999
mp-1105961,ThTaN3,-1.692698896927999
mp-1105965,Er5Tl3,-0.2928701774999993
mp-1105966,Gd2Te3,-1.4385171
mp-1105968,BH6N,-0.4359890690541661
mp-1105974,PrGePd2,-0.8617604937499994
mp-1105977,Lu2Si5Ni3,-0.7563846075000008
mp-1105989,Lu5Ge3,-0.7968303056249999
mp-1105990,Ho5Ge3C,-0.7328719027777777
mp-1106,Sr2Si,-0.3641013427777775
mp-1106010,Lu2Co3Si5,-0.7556404485000001
mp-1106011,Nd3Co,-0.0628968968750003
mp-1106017,La2InNi2,-0.4530406800000001
mp-1106019,CaFe(GeO3)2,-2.40104105825
mp-1106020,Zr5SiSn3,-0.7196281911111113
mp-1106021,Tm2Ge5Rh3,-0.7553107516666671
mp-1106022,Y2Ge5Rh3,-0.7974115996666669
mp-1106023,NiSb3,-0.1411366681250001
mp-1106025,Bi6Te10Pb,-0.2505428470588234
mp-1106026,Y4Ga12Fe,-0.5369931513725485
mp-1106032,Ho5Ge3,-0.8006193512499999
mp-1106039,SmAs2Au,-0.7587053370833337
mp-1106047,Mg2CoB2Ir5,-0.3520507268333332
mp-1106048,Ce(BRh)4,-0.566748408703704
mp-1106051,Y3Cu3Sb4,-0.7246653224999996
mp-1106056,Ba(Sb3Os)4,-0.1648723888235286
mp-1106057,Dy(Co2B)6,-0.3488501415789478
mp-1106061,Ca3Pd,-0.4486524637499998
mp-1106064,Ho4Ga12Ni,-0.5621829229411759
mp-1106065,B3Rh7,-0.2534534559999983
mp-1106066,La(Sb3Os)4,-0.1995964073529404
mp-1106068,LaCr4(CuO4)3,-2.056396214499999
mp-1106074,Y6CoI10,-1.2074540273529413
mp-1106079,Tb2Co3Si5,-0.7695982024999992
mp-1106080,Ba3Ir(CN)3,-0.7307310622140009
mp-1106082,LiCeSi2,-0.5854592354166659
mp-1106085,Nb2PdS5,-1.2782691219531248
mp-1106088,Cs2Cu3SnF12,-2.456099303896782
mp-1106089,Ba2InGaO5,-2.580018564583333
mp-1106092,Sr7Ag3,-0.210732144666667
mp-1106094,KCO3,-1.824680504349999
mp-1106117,La5AgPb3,-0.5429306020370375
mp-1106122,Pr3Ni,-0.1549606318749994
mp-1106127,Ba2DyInSe5,-1.6183895335243057
mp-1106136,GdGaPd2,-0.8851323112500005
mp-1106138,CeAlPd2,-0.8280281487499996
mp-1106152,Nd5Pb3,-0.5386316775000006
mp-1106153,Er3In5,-0.4165666706249999
mp-1106155,Ca2MnReO6,-2.668076389311517
mp-1106156,Cs2Hg3Se4,-0.6004639111374522
mp-1106158,DyGePd2,-0.9161861562499992
mp-1106159,Pr2Si5Pt3,-0.9801064824999998
mp-1106165,Nb5Si3B,-0.6912389253703692
mp-1106169,Zr5Ga3,-0.505426950625
mp-1106170,Gd3Pt,-0.6773454343750007
mp-1106174,Tb7Rh3,-0.6095167629999999
mp-1106180,Re7B3,-0.2220310595
mp-1106183,LiAlS2,-1.6116815794791672
mp-1106184,MnB4,-0.2896467475977005
mp-1106185,UCrSe3,-0.8592306514062493
mp-1106187,Er7FeI12,-1.161870046
mp-1106190,Er4Ga12Ni,-0.5557456582352934
mp-1106196,Lu4Ga12Ni,-0.5215858764705876
mp-1106201,MnGeO3,-2.136618251873034
mp-1106202,Ce2Zn5Sn,-0.4705126762499998
mp-1106213,Nd2MgIrO6,-2.894941491583334
mp-1106214,LuGePd,-0.9690384522222216
mp-1106219,Zr5AlPb3,-0.3492087988888891
mp-1106223,NdGe2Pt,-0.9012484993749998
mp-1106226,PrGe2Pt,-0.898185035
mp-1106227,Sr3(GaP2)2,-0.8722254254761902
mp-1106228,Tb7NiI12,-1.2190975149999996
mp-1106231,SmZn3,-0.3539393814583333
mp-1106233,KNb(CuS2)2,-1.1659570400625006
mp-1106237,DyAl3,-0.4239650189999999
mp-1106240,Tm2Ge5Ru3,-0.6177883936666667
mp-1106241,BaTbMn2O5,-2.8056524363867053
mp-1106245,Zr5AlSb3,-0.7116499811111114
mp-1106249,Ba4Co(ReO6)2,-2.651734972631578
mp-1106250,Gd5Pb3,-0.5523518818749995
mp-1106254,La(LuS2)3,-2.506070835375
mp-1106258,Lu5Sn3,-0.6782449381249993
mp-1106265,Ba2YGaSe5,-1.6495788666724531
mp-1106269,Dy2Sn5Rh3,-0.7165364620000005
mp-1106274,La(Co2B)6,-0.3478153960526317
mp-1106276,Tb3Ir,-0.5656672368750009
mp-1106277,ErAl3(BO3)4,-3.261364268916666
mp-1106280,Ca5Sn3H,-0.684265879846667
mp-1106288,Zr5Sb3Se,-0.8382267719270836
mp-1106289,Ga7Pd3,-0.4330527764999992
mp-1106294,La(TmS2)3,-2.516344348375001
mp-1106297,Ho4Ga12Fe,-0.52155443117647
mp-1106300,Nd3Ru,-0.1947235293750004
mp-1106301,Zr5CuSn3,-0.5461083772222222
mp-1106310,Cu2SiHgS4,-0.7147002303125003
mp-1106326,Er2Si4Mo3,-0.6885291416666656
mp-1106332,Cs3FeBr5,-1.3697331931992336
mp-1106336,Ho7Rh3,-0.6390021095000001
mp-1106349,SmPd3S4,-1.238513504479167
mp-1106351,Nd(As3Os)4,-0.3321076252941173
mp-1106352,Na3MoCl6,-1.7871440264559992
mp-1106353,Er4Ge6Rh7,-0.9668892811764702
mp-1106356,AlH3,-0.1214407852149999
mp-1106357,Tb5Sn3,-0.7285383974999995
mp-1106363,Ho3Sb4Au3,-0.7951626329999997
mp-1106365,Th5Pb4,-0.3559232566666668
mp-1106367,HgS4,-0.3159174220000004
mp-1106369,Ce2Ge5Rh3,-0.8164908384999989
mp-1106373,Sm5Si3,-0.6098845733333329
mp-1106374,LaLuS3,-2.538483297875
mp-1106381,NaAs,-0.3921704937500001
mp-1106389,KBiF6,-2.5467857912675003
mp-1106394,ErGePd,-0.986640566666666
mp-1106395,Pr3Ir,-0.4259377718749997
mp-1106398,V5Ge3B,-0.4607905820370364
mp-1106400,Nd2Ge5Ir3,-0.7523891864999996
mp-1106401,Ce5AgPb3,-0.311495169814815
mp-1106406,Ce2SnS5,-1.8372711019531247
mp-1106407,HfCo3B2,-0.5982331569444439
mp-11069,YbAgSn,-0.5781755733333335
mp-1107,Th7Rh3,-0.587383505999999
mp-11073,Ti3In3Rh2,-0.4659957237499998
mp-11078,BaIn2Rh,-0.4680659174999997
mp-1108,TaB2,-0.6492175555555543
mp-11080,YbMgAu,-0.7167818383333332
mp-11081,CeSnAu,-0.7132383783333337
mp-11082,CeCdAu,-0.5510416405555559
mp-11085,YbCdAu,-0.7075804355555553
mp-11086,La2MgCu2,-0.1975812096666665
mp-1109,Sr5Al9,-0.2667329245238094
mp-11091,NdMgPt,-0.8963818422222221
mp-11098,YbMgPd,-0.6889356816666664
mp-11100,YbIn5Rh,-0.3807935266666667
mp-11101,LuInRh,-0.758400932499999
mp-11102,YbInRh,-0.6617860880555556
mp-11104,HoInRh,-0.761429851111111
mp-11108,SrP3,-0.6391720880952381
mp-1111078,K3RuF6,-2.606056543614
mp-1111079,K3ScF6,-3.551643838114
mp-1111080,K3GaF6,-3.068862454614
mp-1111106,K2NaGaF6,-3.105485466814
mp-1111107,K2LiTiF6,-3.3606189239806668
mp-1111108,K2NaAsF6,-2.815068716814
mp-1111110,K2LiScF6,-3.620598884480666
mp-1111112,K2LiGaF6,-3.1275909189806663
mp-1111126,K2LiLuCl6,-2.4281507152226665
mp-1111145,K3CoF6,-2.734434198114001
mp-1111150,K2LiCoF6,-2.788279314480667
mp-1111239,K2NaBiCl6,-1.8819460500560008
mp-1111261,K2LiBiCl6,-1.8878291592226664
mp-11113,TiTeAs,-0.6914135416666672
mp-11114,KCuPdSe5,-0.4234716899648436
mp-1111421,K3LuCl6,-2.420412839856
mp-1111484,Rb2TlCuBr6,-0.9858609105
mp-1111491,K3FeF6,-2.981433115614
mp-11115,RbCuPdSe5,-0.4280935555273437
mp-1111504,Na3TmCl6,-2.477455765789333
mp-1111571,K2TlRhF6,-2.397733059314
mp-11116,CsYCdSe3,-1.3628521472159365
mp-1111621,K2NaScCl6,-2.361280683556
mp-1111639,K2NaLuCl6,-2.422622938056
mp-1111649,K2NaScBr6,-1.6988651425999997
mp-1111658,K2LiTlF6,-2.7519044219806665
mp-1111665,K2LiRhF6,-2.6886043429806663
mp-1111671,K2LiInF6,-3.044160592980667
mp-1111695,K3CrF6,-3.106631677614
mp-11118,CsPrCdSe3,-1.359517156660381
mp-1111890,Na3IrF6,-2.417849975214
mp-1111916,K2NaTiF6,-3.332281187814
mp-1111919,K2NaIrF6,-2.569421250814
mp-1111923,K2LiRuF6,-2.6759978009806664
mp-1111927,K2LiCrF6,-3.1681476459806666
mp-1111928,K2LiAsF6,-2.844005645980667
mp-1111932,K2LiScCl6,-2.3664453657226665
mp-1111949,K2AlAgF6,-3.0700021376473337
mp-1111950,K2AgRhF6,-2.2733164696473334
mp-1111952,Cs2AlTlF6,-3.2230928803002072
mp-1111954,Cs2NaNdF6,-3.5501074708002065
mp-1111963,Cs2RbScF6,-3.575469967550206
mp-1111965,Cs2RbIrF6,-2.554891226050207
mp-1111968,Cs2RbAsF6,-2.8022106810502065
mp-1111970,Cs2NaPrF6,-3.537112723300207
mp-1111979,Cs2NaRhF6,-2.647008278800207
mp-1111985,K2InAgCl6,-1.668375065889333
mp-1111986,K2LuAgCl6,-2.1364278158893333
mp-1111988,Cs2NaScCl6,-2.424055210542207
mp-1111998,K2ScAgBr6,-1.4448135624333331
mp-1112,CeCo2,-0.2520895666666665
mp-1112000,Cs2ScTlCl6,-2.2471402430422067
mp-1112003,Cs2TlSbCl6,-1.7421620360422072
mp-1112005,Cs2RbTmCl6,-2.4970013516255407
mp-1112006,Cs2NaNdCl6,-2.4696649980422065
mp-1112008,Cs2NaLuCl6,-2.493013512042207
mp-1112013,Cs2NaRuF6,-2.633972183800207
mp-1112014,Cs2NaIrF6,-2.5605528348002067
mp-11121,CsTbCdSe3,-1.3603459641603806
mp-1112103,Cs2YTlCl6,-2.3064070038755404
mp-1112106,Cs2YTlBr6,-1.6855858979195404
mp-1112109,Cs2TlBiCl6,-1.794115469542207
mp-1112112,Cs2TlAsBr6,-1.106066802586207
mp-1112114,Cs2RbYCl6,-2.4907667306255403
mp-1112115,Cs2RbTbCl6,-2.491070414292207
mp-1112117,Cs2RbScI6,-1.408986047836207
mp-1112118,Cs2RbSmCl6,-2.47772523662554
mp-1112120,Cs2RbScCl6,-2.429761151792207
mp-1112125,Cs2RbInCl6,-2.018400102292207
mp-1112130,Cs2RbDyCl6,-2.4930117412922064
mp-1112134,Cs2RbAsBr6,-1.253859067336207
mp-1112137,Cs2NaYI6,-1.4608532104195395
mp-1112138,Cs2NaTlBr6,-1.2574590110862072
mp-1112141,Cs2NaScI6,-1.3866391325862069
mp-1112143,Cs2NaPrCl6,-2.464503189542207
mp-1112144,Cs2NaPrI6,-1.4607984635862068
mp-1112145,Cs2NaNdBr6,-1.8374862240862069
mp-1112146,Cs2NaPrBr6,-1.8347590805862064
mp-1112156,Cs2YTlI6,-1.3257249789195398
mp-1112166,Cs2RbRuF6,-2.6271944430502066
mp-1112176,CsTlCl3,-1.6712554475422068
mp-1112177,CsTlBr3,-1.1260873595862069
mp-11122,CsDyCdSe3,-1.3570540533270474
mp-1112229,K2LuCuCl6,-2.100441388556
mp-1112238,K2CuBiCl6,-1.5943498605560005
mp-11123,CsYHgSe3,-1.2285018472159368
mp-11124,CsLaHgSe3,-1.2962451158270476
mp-1112402,CsRb2RhF6,-2.579706803007104
mp-1112447,K2ScAgF6,-3.195975022147333
mp-1112448,K2ScAgCl6,-2.0787703103893334
mp-1112467,K2GaAgF6,-2.7081090756473336
mp-1112476,K2AgBiCl6,-1.616022909889334
mp-1112482,Cs2YTlF6,-3.383475320633541
mp-1112484,Cs2ScTlI6,-1.2572258320862066
mp-1112485,Cs2ScTlF6,-3.3746588728002065
mp-1112486,Cs2TlRuF6,-2.427011120300207
mp-1112487,Cs2TlRhF6,-2.447570071300207
mp-1112490,Cs2TlInCl6,-1.8418400995422075
mp-1112498,Cs2TlBiBr6,-1.233266322586207
mp-1112503,Cs2TlAsF6,-2.6089197243002067
mp-1112515,Cs2RbLuCl6,-2.4960475992922064
mp-1112527,Cs2NaTlCl6,-1.829348073042207
mp-1112534,Cs2NaScBr6,-1.7756780295862071
mp-1112538,Cs2NaMoCl6,-1.8969107110422063
mp-1112544,Cs2TlAsI6,-0.8363146935862069
mp-1112567,Cs2NaTmCl6,-2.494936728375541
mp-1112570,Cs2NaGaF6,-3.0719340668002064
mp-1112583,Cs2KRuF6,-2.6497679606002067
mp-1112586,Cs2AlInF6,-3.1811611113002067
mp-1112594,Cs2RhAuF6,-2.1098905173002067
mp-1112596,Cs2NaAsF6,-2.811358488800207
mp-1112606,Cs3BiF6,-2.9034359990933103
mp-1112610,Cs2TaHgF6,-2.8870984063002068
mp-1112613,Cs2LiErCl6,-2.4802943032088742
mp-1112622,Cs2ScAgCl6,-2.1396453493755407
mp-1112624,Cs2LiGdCl6,-2.473775413208874
mp-1112628,Cs2YInCl6,-2.26282924487554
mp-1112642,CsInBr3,-1.2298901095862071
mp-1112650,Cs3SmCl6,-2.458552652668644
mp-1112651,Cs3InBr6,-1.4095494033793103
mp-1112656,Cs2NaCeI6,-1.449622080586207
mp-1112657,Cs2NaGdCl6,-2.485311079042208
mp-1112660,Cs2NaCeBr6,-1.825632371586207
mp-1112661,Cs2NaBiBr6,-1.3782005480862072
mp-1112663,Cs2LiYI6,-1.4448720055862068
mp-1112664,Cs2NaAsBr6,-1.2374259260862068
mp-1112666,Cs2LiYBr6,-1.833552359586207
mp-1112669,Cs2LiTbCl6,-2.4782944072088733
mp-1112671,Cs2LiSmCl6,-2.467660976542207
mp-1112675,Cs2LiPrBr6,-1.8238056587528733
mp-1112678,Cs2LiNdCl6,-2.4597567292088742
mp-1112679,Cs2LiNdBr6,-1.8260555332528736
mp-1112680,Cs2LiCeI6,-1.436589856752874
mp-1112687,Cs2KYI6,-1.4889039352195397
mp-1112688,Cs2LiCeBr6,-1.8151096467528736
mp-1112689,Cs2KTmCl6,-2.513205099175541
mp-1112690,Cs2KYCl6,-2.50703443317554
mp-1112710,Cs2KScI6,-1.4169150223862068
mp-1112754,Cs2KPrBr6,-1.8545851433862068
mp-1112758,Cs2KNdBr6,-1.857524840886207
mp-1112759,Cs2KInCl6,-2.032239406842207
mp-1112760,Cs2KLuCl6,-2.512079697842206
mp-1112784,Cs2KCeI6,-1.4745465733862066
mp-1112785,Cs2KDyCl6,-2.509342221842207
mp-1112787,Cs2KCeBr6,-1.8448297203862072
mp-1112792,Cs2KAsBr6,-1.2638876248862068
mp-1112795,Cs2YInI6,-1.2857539589195404
mp-1112890,Cs2InBiI6,-0.9204630455862066
mp-1112892,Cs2InBiBr6,-1.2029856125862068
mp-1112934,Cs2YAgBr6,-1.5878980782528735
mp-1112937,Cs2TbAgCl6,-2.2052002858755406
mp-1112938,Cs2ScAgI6,-1.1631349414195402
mp-1112939,Cs2SmAgCl6,-2.1940825372088733
mp-1112940,Cs2AgSbCl6,-1.64302777137554
mp-1112942,Cs2PrAgI6,-1.2394213254195403
mp-1112943,Cs2AgSbBr6,-1.0898067834195402
mp-1112944,Cs2NdAgBr6,-1.58038843391954
mp-1112945,Cs2NdAgCl6,-2.18588861187554
mp-1112946,Cs2KPrF6,-3.537959228100207
mp-1112960,CsInF3,-2.776034276300208
mp-1112961,CsInCl3,-1.8055996065422069
mp-1112963,Cs3TiF6,-3.2813795150933105
mp-1112964,Cs3TbCl6,-2.47182006533531
mp-1112970,Cs3InF6,-2.9813429070933104
mp-1112990,Cs2NaDyCl6,-2.492187550042207
mp-1112992,Cs2NaCeF6,-3.5377975403002067
mp-1112998,Cs2LiTmCl6,-2.480819685542207
mp-1113,BW2,-0.2618615544444462
mp-1113008,Cs2LiPrI6,-1.447207862752873
mp-1113010,Cs2LiNdI6,-1.4470196432528737
mp-1113016,Cs2LiInF6,-3.003132496966874
mp-1113018,Cs2LiDyCl6,-2.479202207208874
mp-1113019,Cs2LiCeF6,-3.531637047466874
mp-1113020,Cs2LiCeCl6,-2.446796480708874
mp-1113022,Cs2LiBiF6,-2.9445753239668733
mp-1113024,Cs2LiBiCl6,-1.9540407952088727
mp-1113028,Cs2KYBr6,-1.86946677021954
mp-1113029,Cs2KTlCl6,-1.850607986842207
mp-1113035,Cs2KPrI6,-1.486553869386207
mp-1113039,Cs2KNdI6,-1.4870000118862066
mp-1113042,Cs2KMoCl6,-1.9239943408422064
mp-1113046,Cs2KInBr6,-1.430310376886207
mp-1113047,Cs2KScBr6,-1.8008416573862072
mp-1113049,Cs2KGdCl6,-2.5015096768422067
mp-1113052,Cs2KCeCl6,-2.4703999993422068
mp-1113058,Cs2KErCl6,-2.5118026028422067
mp-1113063,Cs2YInBr6,-1.6436968319195409
mp-1113067,Cs2ScInCl6,-2.2051483920422066
mp-1113068,Cs2ScInI6,-1.2194842140862068
mp-11131,K2Hg3(GeS4)2,-0.8842423340666665
mp-11132,KPrTe4,-0.9580822671666668
mp-1113300,Cs2InHgBr6,-1.1381520255862068
mp-1113338,Rb2ScAgCl6,-2.1101328752893336
mp-1113339,Rb2TlAgCl6,-1.5372504547893335
mp-1113342,Rb2CuBiCl6,-1.6257376234560006
mp-1113376,Rb2AgAsCl6,-1.5263146467893336
mp-1113425,Cs2YAgF6,-3.2344351529668733
mp-1113432,Cs2YAgCl6,-2.2041346922088736
mp-1113437,Rb2AgAsBr6,-0.9710701728333332
mp-1113438,Rb2InAgBr6,-1.1182053468333333
mp-1113440,Cs2TmAgCl6,-2.2082976152088736
mp-1113441,Cs2TlAgF6,-2.38528347263354
mp-1113442,Cs2TlAgCl6,-1.5717114098755405
mp-1113444,Cs2TlAgBr6,-1.03548874291954
mp-1113448,Cs2ScAgF6,-3.2223406391335403
mp-1113453,Cs2PrAgF6,-3.1681265651335404
mp-1113459,Cs2PrAgCl6,-2.1810274243755403
mp-1113461,Cs2NdAgI6,-1.23915068791954
mp-1113491,Cs3ScI6,-1.4012328088793105
mp-1113492,Cs3YF6,-3.553522270426644
mp-1113508,Cs3GaF6,-3.0495188300933105
mp-1113517,Cs2KAsF6,-2.824935457600207
mp-1113518,Cs2ScInF6,-3.3364800078002075
mp-1113542,Cs2LuAgCl6,-2.20602529787554
mp-1113543,Cs2AgAsCl6,-1.5541674698755408
mp-1113554,Cs2InAgBr6,-1.1565955339195402
mp-1113556,Rb2YAgBr6,-1.5442166321666668
mp-1113559,Rb2CuSbCl6,-1.576469379956
mp-1113560,Rb2ScCuCl6,-2.067791492956
mp-1113569,Cs2CeAgBr6,-1.5704968034195403
mp-1113578,Cs2AgAsBr6,-1.0062975139195405
mp-1113579,Rb2TlAgF6,-2.366479562547333
mp-1113580,Rb2TmAgCl6,-2.172397923122667
mp-1113582,Rb2TlAgBr6,-0.993902203833333
mp-1113583,Cs2GaAgF6,-2.7109913286335403
mp-1113585,Cs2LaAgCl6,-2.22180558737554
mp-1113588,Cs2InAgF6,-2.65587633863354
mp-1113595,Cs2ErAgCl6,-2.2075542528755405
mp-1113598,Rb2InCuCl6,-1.6665331354560002
mp-1113610,Cs2DyAgCl6,-2.20638905187554
mp-1113614,Cs2AlAgF6,-3.0564080146335404
mp-1113625,Rb2ScAgF6,-3.2145728270473333
mp-1113695,Rb2AgSbCl6,-1.6051624212893336
mp-1113698,Rb2TbAgCl6,-2.1665850427893334
mp-1113700,Rb2YAgCl6,-2.1660518371226667
mp-1113712,Rb2AgPdF6,-2.1895123575473336
mp-1113717,Rb2AgMoCl6,-1.5859543417893334
mp-1113725,Rb2ErAgCl6,-2.1709596217893337
mp-1113737,Rb2LuAgCl6,-2.171295262789333
mp-1113760,Rb2GaAgF6,-2.717262369547333
mp-1113761,Rb2InAgCl6,-1.7008853637893335
mp-1113793,Rb2DyAgCl6,-2.168491435789333
mp-1113798,Rb2AgBiF6,-2.562267887547333
mp-1113806,Rb2AgBiCl6,-1.6547525367893328
mp-1113857,Rb2AlAgF6,-3.071992715547333
mp-1113876,Rb2AgRhF6,-2.286894542547333
mp-1113877,Rb2YAgF6,-3.2110036498806664
mp-1114,VP,-0.8156867117857134
mp-11140,Ho2Sb5,-0.6266946614285713
mp-1114094,Rb2InAgF6,-2.6422941205473336
mp-1114156,K3RhF6,-2.624924223614
mp-1114171,K2NaRuF6,-2.645625615814
mp-11142,SrCu9Si4,-0.2192472661904762
mp-1114295,Cs2TlCuBr6,-1.0202477475862068
mp-11143,BaCu9Si4,-0.1920173574999997
mp-1114333,Na3RhF6,-2.514167769214
mp-1114343,Rb3CoF6,-2.717240111464001
mp-1114347,KRb2AlF6,-3.4468648255140004
mp-1114355,KRb2TlF6,-2.7173366275140003
mp-1114360,Rb2LiTlF6,-2.7507555088806668
mp-1114362,Rb2NaAsCl6,-1.7846522149560002
mp-1114365,Rb2NaIrF6,-2.5730844557140005
mp-1114370,Rb2TlBiF6,-2.696239193214
mp-1114374,Rb3GaF6,-3.054487079964
mp-1114376,Rb3RhF6,-2.6162325349640003
mp-1114379,Rb3TlF6,-2.6846893949640003
mp-1114381,Rb3YF6,-3.5414571452973336
mp-1114395,Rb2TlInBr6,-1.2089633615
mp-11144,SrCu9Ge4,-0.157529049761905
mp-1114404,KRb2IrF6,-2.557696228514
mp-1114410,KRb2ScCl6,-2.3997233712560004
mp-1114416,Rb2LiBiF6,-2.953742565880666
mp-1114419,Rb2LiInF6,-3.033470806880667
mp-1114421,Rb2LiLuCl6,-2.454871460122667
mp-1114423,Rb2LiMoCl6,-1.860305542122667
mp-1114428,Rb2LiSbCl6,-1.8665628876226663
mp-1114429,Rb2LiScCl6,-2.389271744622666
mp-1114431,Rb2LiTbCl6,-2.450237371122667
mp-1114432,Rb2LiYF6,-3.607043244214
mp-1114437,Rb2NaCeF6,-3.5196848762140007
mp-1114438,Rb2NaDyCl6,-2.453441723956
mp-1114439,Rb2NaErCl6,-2.456418588956
mp-1114441,Rb2NaGdCl6,-2.4448956389560004
mp-1114444,Rb2NaLuCl6,-2.4575178019560004
mp-1114446,Rb2NaMoCl6,-1.868292809956
mp-1114456,Rb2NaScF6,-3.596129312214
mp-1114457,Rb2NaScI6,-1.3371279655
mp-1114460,Rb2NaTbCl6,-2.451238327956
mp-1114462,Rb2NaTlBr6,-1.212393351
mp-1114468,Rb2AlTlF6,-3.210634634214
mp-1114470,Rb2TlAsCl6,-1.613269863456
mp-1114482,Rb2TlRhF6,-2.425066312214
mp-1114483,Rb2TlRuF6,-2.401457365214
mp-1114486,RbInCl3,-1.758941740456
mp-1114490,Rb3AlF6,-3.414406591964
mp-1114494,Rb3BiF6,-2.8879475429640005
mp-1114496,Rb3FeF6,-2.9693606379640003
mp-11145,BaCu9Ge4,-0.1469761050000002
mp-1114503,Rb3TiF6,-3.281160067964
mp-1114507,RbTlF3,-2.499096627214
mp-1114523,Rb2InBiCl6,-1.7073071334559995
mp-1114526,Rb2ScInI6,-1.164422966
mp-1114562,Rb2LiBiCl6,-1.921024924122667
mp-1114565,Rb2LiDyCl6,-2.4521093791226667
mp-1114566,Rb2LiErCl6,-2.454655585122667
mp-1114576,Rb2LiSbF6,-2.916879924380667
mp-1114581,Rb2LiTlBr6,-1.206415215166667
mp-1114582,Rb2LiYBr6,-1.7960357925000003
mp-1114583,Rb2LiYCl6,-2.4495388084560004
mp-1114587,Rb2NaCeBr6,-1.7761185174999998
mp-1114590,Rb2NaInBr6,-1.360599459
mp-1114597,Rb2NaSmCl6,-2.436623324289333
mp-1114601,Rb2NaYBr6,-1.801661048333333
mp-1114602,Rb2NaYCl6,-2.450831834289333
mp-1114609,Rb2TlSbCl6,-1.6891300579560002
mp-1114615,RbInBr3,-1.1801551545000002
mp-1114619,Rb3BiCl6,-1.909936413206
mp-1114625,Rb3InCl6,-1.967259755206
mp-1114640,KRb2AsF6,-2.803970102514
mp-1114650,Rb2ScInCl6,-2.157584500956
mp-1114658,Rb2LiCeBr6,-1.7731367156666664
mp-1114660,Rb2NaAsBr6,-1.197284917
mp-1114662,Rb2NaScBr6,-1.7356174465000005
mp-1114663,Rb2ScTlCl6,-2.198078951956
mp-1114665,Rb3ScCl6,-2.3790086097060006
mp-1114667,Rb2LiTmCl6,-2.456069305456
mp-1114671,Rb2NaScCl6,-2.392986113456
mp-1114677,Rb3SbF6,-2.8544230564640003
mp-1114681,Rb2TlAsF6,-2.5804346822140003
mp-1114686,RbInF3,-2.7512304152140006
mp-1114687,Rb3AsF6,-2.770708186964
mp-1114689,Rb3InF6,-2.974202455964
mp-1114692,Rb3RuF6,-2.5972545369640003
mp-1114696,KRb2RuF6,-2.630807839514
mp-1114697,Rb2LiAlF6,-3.4423027558806667
mp-1114698,Rb2LiAsF6,-2.828676339880667
mp-11147,Na5CuSO2,-1.353068605625
mp-1114700,Rb2LiRhF6,-2.666530635880666
mp-1114701,Rb2LiRuF6,-2.6551923278806666
mp-1114702,Rb2LiScF6,-3.601935228380667
mp-1114704,Rb2LiTiF6,-3.3363808778806665
mp-1114708,Rb2NaRuF6,-2.648016847714
mp-1114712,Rb3CrF6,-3.093603895964
mp-1115,PtSe2,-0.3873457815624999
mp-11151,NaPrTe2,-1.32898067125
mp-11152,SiSbPt,-0.4868676233333329
mp-11155,NdMgGa,-0.4898758977777777
mp-11156,TmMgGa,-0.4742763122222221
mp-11157,SmMgGa,-0.4975412822222217
mp-11160,SmSbIr,-0.8864892919444453
mp-11165,Na2MgPO4F,-2.926397177010529
mp-11166,BaZnCO3F2,-2.7235605532662497
mp-11168,Ca(PIr)2,-0.8977515664285713
mp-11169,Ba(PIr)2,-0.846138243428571
mp-11171,LiRhF6,-2.154115682975833
mp-11172,LiIrF6,-2.241466316725834
mp-11174,K2IrF6,-2.49605331257111