material_id,pretty_formula,formation_energy_per_atom
mp-1221959,MgTi2MnO6,-3.16979217714485
mp-1221970,Mn3Nb8FeO24,-2.8627586658845967
mp-1221978,MgZn(FeO2)4,-2.063655727738096
mp-1221979,Mn(InTe2)2,-0.2747510713793102
mp-1221985,MgCdAg2,-0.1665740075000004
mp-1221990,MgVCrO4,-2.6859791911904765
mp-1221996,Mn2CoO4,-1.887913208747193
mp-1221997,MgTi4FeO10,-3.2637226113020823
mp-1222009,MgMnB2O5,-2.7831224643739065
mp-1222011,MgCdTe2,-0.6683226483333335
mp-1222014,Mn3Zn(IO3)8,-1.1472498163012632
mp-1222015,MgCdAu2,-0.4065064858333334
mp-1222018,Mn2Cr3FeO8,-2.2603818893735954
mp-1222019,MgCdTe2,-0.6664608358333335
mp-1222023,MgGaCu,-0.1751305794444437
mp-1222026,Mn2GaNi,-0.1966642773275868
mp-1222032,Mn2InSbO6,-2.0356818578730342
mp-1222033,Mn4Zn3(NiO6)2,-1.7669128736886048
mp-1222036,Mn4CoNi3Ge4,-0.2424690703017257
mp-1222037,MgIn2,-0.0449199944444442
mp-1222048,MgFe(CO3)2,-2.177953045083334
mp-1222050,Na10Sn4Au13,-0.3689264755555555
mp-1222065,MgAg2(PS3)2,-0.8061302559902601
mp-1222070,MgTi4(PO4)6,-3.056616263564625
mp-1222077,Mn5Cu3(Te2O5)8,-1.56073666207931
mp-1222078,Mn(CuTe)2,-0.0583308944310346
mp-1222080,MgCd(CO3)2,-2.122321654083334
mp-1222082,Mg6CdIn,-0.08733760125
mp-1222089,MgCo2(PO4)2,-2.5230654084981685
mp-1222090,Mg6SiGe2,-0.2334448116666665
mp-1222096,Mn2GaCo4Ge,-0.262990067413793
mp-1222098,Mn3Cr8CuS16,-1.0594038324630546
mp-1222099,MgCr8Fe3O16,-2.350258820833333
mp-12221,CaTeO4,-2.281013960833333
mp-1222101,MgCd3(CO3)4,-1.946199223916666
mp-1222104,Mn4Co4Si3Ge,-0.3907255844683917
mp-1222106,Mn23(BC)3,-0.1616238074851374
mp-1222108,Mg4SiGe,-0.214407171388889
mp-1222110,MnGa2Ni9,-0.230366434137931
mp-1222125,Mg4SiGe,-0.2068291997222223
mp-1222137,Mg3HgAu2,-0.4692081383333333
mp-1222139,Mg4CdAg5,-0.2221403610000002
mp-1222143,Mg3InAg4,-0.2006319891666663
mp-1222144,Mg2AgPd,-0.4949631974999997
mp-1222145,Mg3MnTe4,-0.6785931612068965
mp-1222148,Mn4Co11Ge5,-0.2252013406810348
mp-1222149,Na3H5(SeO4)4,-1.4100783577669636
mp-1222150,Mg4AlB10,-0.1403172257777773
mp-1222152,Mg2ZnSb2,-0.2418315443333334
mp-1222154,Mg4Sn6Pt5,-0.659945730222222
mp-1222155,Mg3FeO4,-2.7246341956250006
mp-1222158,MgV4Cu3O14,-2.0350647704924243
mp-1222159,Mg4FeO5,-2.792576156958333
mp-1222161,Mn4FeGe3,-0.1161851985775861
mp-1222163,Mg4FeO5,-2.7907425062083333
mp-1222165,Mn23(BC2)2,-0.1404587392667465
mp-1222170,Mg3MnNi3O8,-2.0410720547076777
mp-1222172,Mg3Au13,-0.3104872549999999
mp-1222181,Mn12Pt4N,-0.2378386446024746
mp-1222182,Mg(InTe2)2,-0.4841580347619048
mp-1222183,Mg4B3Ir2,-0.3423017631481476
mp-1222187,Mg2Cu3Ge,-0.2045159386111107
mp-1222188,Na11B21(ClO18)2,-2.7322613270217144
mp-1222191,Mn4Cr(GaCo2)5,-0.2166144409310348
mp-1222193,Mg4CuNi,-0.1464801627777778
mp-1222194,Mn29H2,-0.0131761953948405
mp-1222196,Mg2V2CoO8,-2.5026634943589743
mp-1222199,Na20Zn8Sn11,-0.1852073696153844
mp-1222200,Mg(InSe2)2,-0.7303740603869048
mp-1222204,Na3As4H5O14,-1.734880178292309
mp-1222208,Mg3(AlCu2)2,-0.2187870972222221
mp-1222209,Mg4FeO5,-2.7898715367083327
mp-1222214,Mg3(AlCu2)2,-0.2149584200000001
mp-1222215,Mg3Fe3(PO4)4,-2.743677921703296
mp-1222221,Nd3Pb3I13O40,-1.3607725791525422
mp-1222222,Mn4Ga3Co8Ge,-0.2491105792887937
mp-1222226,PrCd6,-0.2241589754761905
mp-1222228,Na14Mg9(P2O7)8,-2.815908679969925
mp-1222229,Mg3Si9B36C,-0.112198073367346
mp-1222233,Mn23As16,-0.1452490110786922
mp-1222239,Pr31Ni64,-0.2852100827894733
mp-1222256,Rb5Mo3O3F14,-2.884993247583066
mp-1222264,Mg3BH2O5F,-2.753602013584445
mp-1222266,Lu3S4,-2.3807298503571426
mp-1222268,MgAsH16NO10,-1.4620148071080454
mp-1222283,LuSc(BO3)2,-3.512775183916665
mp-1222296,LiSmS2,-2.1343566640625
mp-1222297,LiTbS2,-2.1714014757291675
mp-1222310,Lu2C,-0.3729236366666661
mp-1222319,LuGaAu,-0.764289675
mp-1222321,LuGaAg,-0.4545483894444443
mp-1222325,LuCuPbS3,-1.4251860890625003
mp-1222329,LuAlCu,-0.3976376483333332
mp-1222336,LiZnRhF6,-2.4345744620896297
mp-1222339,Lu2AlCo3,-0.3806564608333336
mp-1222342,Lu2Al3Fe,-0.4151014183333335
mp-1222344,LiTaGeO5,-2.769286684114583
mp-1222349,LiGeRhO4,-1.905006633809524
mp-1222351,LiFeF6,-2.265481859850833
mp-1222352,LiTiRhO4,-2.4331364538095244
mp-1222354,LiInO2,-2.0686951785416663
mp-1222365,Lu2Ga3Cu,-0.5718564283333324
mp-1222370,LiGdS2,-2.1637028857291654
mp-1222376,LiZnBO3,-2.4217534781249994
mp-1222389,LiFeSO4F,-2.3388076051227085
mp-1222392,LiUI6,-0.8784149020833332
mp-1222398,LiGa(GeSe3)2,-0.5088722040729167
mp-1222404,LiBiS2,-1.067839230729167
mp-1222409,LiGaBH3O5,-2.1051176411009083
mp-1222411,LiCa2CuN2,-0.7689356494044445
mp-1222413,LiB3,-0.2370146722916661
mp-1222422,LuZr3F15,-4.142792408571053
mp-1222424,Li3Tl2Cd,-0.2371284683333335
mp-1222442,Li5AuO4,-1.8114057658333336
mp-1222443,Li4ZnCd3,-0.2401541627083334
mp-1222444,LiAlSiO4,-3.2118250671428568
mp-1222448,Lu2Si9B36C,-0.1977432498958329
mp-1222452,LiBi3(ClO2)2,-1.8058193848186668
mp-1222454,Lu(AlCu)6,-0.3465149215384615
mp-1222458,LiB12PC,-0.2729037056825386
mp-1222461,LiBi3(IO2)2,-1.5107640811666665
mp-1222462,Li4CoTeO6,-2.016162092430555
mp-1222465,Lu4Co3,-0.2541226749999995
mp-1222466,MgZr4(PO4)6,-3.207692601421769
mp-1222468,LiMoP2WO11,-2.44757814797247
mp-1222470,LuAl7Fe5,-0.3983384146153854
mp-1222477,LiVZnO4,-2.3014680438095225
mp-1222482,Li6AsS5I,-1.251190973894231
mp-1222483,LiBi3(BrO2)2,-1.6210575731666672
mp-1222490,Li4(CdSb)5,-0.3032543708333333
mp-1222491,LiTiSn(PO4)3,-2.7781527062433864
mp-1222492,Li3ErBr6,-1.6829041830000002
mp-1222500,Li3Sn11Pd4,-0.3781354772222222
mp-1222504,Mn12Ge4N3,-0.244876660684319
mp-1222513,Li3Fe2CoO6,-1.976397618541667
mp-1222514,Lu(Fe5Si)2,-0.2602037415384615
mp-1222515,Lu2(B2Rh3)3,-0.6371272570588234
mp-1222517,LiLa5Si4N10O,-1.7070221088912687
mp-1222525,LiAlGeO4,-2.711659260714285
mp-1222528,Lu(CuS)3,-1.1213867934821435
mp-1222529,Li4GeS4,-1.350230796296297
mp-1222536,Li3Mg5Bi3Pb,-0.2940068355555552
mp-1222537,LiZr5TlF22,-3.8626976813050566
mp-1222539,Li4Sc3In(SiO3)8,-3.222941390541666
mp-1222542,LiIn2CuTe4,-0.4432958858333333
mp-1222544,Li4CoRuO6,-1.899770709097221
mp-1222547,Li4VFe3(PO4)4,-2.576671636105442
mp-1222549,Li9Ag4,-0.1671737660256411
mp-1222552,Li4ZnIn2F12,-2.965157061102456
mp-1222555,LuFe2Co2B,-0.32210809888889
mp-1222563,Li4Sc3In(SiO3)8,-3.223586328291667
mp-1222564,LiCoCuF6,-2.329085384311852
mp-1222565,Li4B7ClO12,-2.766876672635833
mp-1222572,Li7Cu2N3,-0.4236757294838889
mp-1222575,Li4ScIn3(SiO3)8,-2.967433823541667
mp-1222578,LiSc(BH4)4,-0.3576530814963635
mp-1222583,LuTaTiO6,-3.674262077777778
mp-1222584,Li3Ag2,-0.1965687553333332
mp-1222587,Li5TlIn,-0.2497310376190472
mp-1222589,LiMgH14Cl3O7,-1.5575242076619231
mp-1222598,Li3AsO4,-2.2744045937499995
mp-12226,NaNd(PO3)4,-2.9145281489880954
mp-1222600,Li2ZnSn,-0.3219875445833335
mp-1222602,Li2SiAu,-0.4570666420833333
mp-1222607,Li2SnPt,-0.6564801183333335
mp-1222608,Li2SnPd,-0.5915199233333333
mp-1222610,Li2MgZn,-0.1322325804166666
mp-1222612,Li2SnIr,-0.4177462333333332
mp-1222613,Li2MgTl,-0.2137622941666666
mp-1222615,Li2MgSn,-0.3482852741666669
mp-1222616,Li2TlHg,-0.2988425133333334
mp-1222617,Li2ZnCu3,-0.1235677580555556
mp-1222618,Li2ZnCdP2,-0.4920995509126988
mp-1222629,Li4ScFe3(SiO3)8,-2.9480669077916657
mp-1222638,LiMg4Al(MoO4)6,-2.452906473888888
mp-1222646,Li2MgHg,-0.2795843091666665
mp-1222647,Li2MgGa,-0.2380609266666664
mp-1222648,Li2MgCd,-0.1875627066666665
mp-1222650,Li2MgAu,-0.4394545341666664
mp-1222651,Li2MgGe,-0.3329712691666664
mp-1222652,Li2MgPb,-0.2538850916666666
mp-1222657,Li2GePd,-0.5558092433333335
mp-1222659,Li2GaAg,-0.3002332141666666
mp-1222661,Li2MgCdP2,-0.6119754606349209
mp-1222668,Li2AlGa,-0.2602457658333335
mp-1222671,Li2CdIn,-0.2941488283333335
mp-1222672,LiMgAl(MoO4)3,-2.442978565555556
mp-1222673,Li2GaCu3,-0.1669164322222223
mp-1222697,LaSmS2,-2.428582396145834
mp-1222701,LaTmS2,-2.386753393645834
mp-1222703,LaSmB12,-0.5067474891666665
mp-1222704,LaZnAgP2,-0.7176816860952385
mp-1222707,LaThN2,-1.69564451994
mp-1222711,Li2GeTeO6,-2.022750153083334
mp-1222712,LaV2BiO8,-2.68993540625
mp-1222713,LaUS2,-2.0541045703124983
mp-1222715,Li2Ti2AsPO10,-2.809753378087798
mp-1222719,LaTiSbO6,-3.0870369119444456
mp-1222722,Li(ZrS2)2,-1.9202667070238104
mp-1222723,LaUO4,-3.9279150549999984
mp-1222726,Li(TiTe2)2,-0.7770096723809518
mp-1222731,LaUN2,-1.563112632439999
mp-1222733,LaZn4Ni,-0.3434160958333336
mp-1222742,Li2MgSiO4,-2.9611935827083333
mp-1222743,Li2LuUS4,-1.9032390782291664
mp-1222744,LaZnCuP2,-0.7839981994285715
mp-1222754,LaYMg6,-0.1079006672916667
mp-1222757,Li2MgTi9O20,-3.396124963177084
mp-1222762,LaPrAl4,-0.4934666299999997
mp-1222764,LaTaTiO6,-3.655267445277777
mp-1222765,LaZn3Ni2,-0.3682783950000002
mp-1222769,Li2Ga7,-0.1885499964814813
mp-1222771,Li3(WO3)8,-2.1989684031428576
mp-1222772,Li(TiTe2)5,-0.7362688410416656
mp-1222784,Lu5B4Rh15,-0.8056381043055557
mp-1222785,LaNdAl4,-0.4967992708333331
mp-1222789,LaPrAl6,-0.4386623900000002
mp-1222794,LaGa3Pt,-0.7485615209999998
mp-1222795,LaNdN2,-1.5184938699400004
mp-1222798,Li14MgSi4,-0.2524146011403509
mp-1222800,LaGd(ClO)2,-3.5305463790033342
mp-1222806,LaGdB12,-0.5071094324999998
mp-1222807,LaGe2RuRh,-0.8199712770000005
mp-1222810,Li2InP2HO8,-2.5041911377925845
mp-1222813,LuGa2Ni3,-0.5608941561111109
mp-1222814,LaYCo10,-0.0635810731944452
mp-1222820,Li2MgGeO4,-2.5342347405208328
mp-1222823,LaGaSi,-0.7192280433333332
mp-1222825,Lu4Zr3O12,-4.00165199236842
mp-1222826,Li2Zr6MnCl15,-2.0001016709120214
mp-1222829,LaSeS,-2.05261719015625
mp-1222830,Li2InFe(P2O7)2,-2.597835662505412
mp-1222831,LaYb(Mo3S4)4,-1.2700722373888889
mp-1222832,LaPr(CoP)4,-0.9820896984285716
mp-1222835,LaGe2IrRu,-0.7678483809999989
mp-1222836,Li2Cr2FeSbO8,-2.2320607016666663
mp-1222838,LaYNi10,-0.298551208194444
mp-1222839,LaUTe6,-0.8104322068750003
mp-1222841,LaSiBO5,-3.450074562656249
mp-1222842,LaGa3Pd,-0.7087436389999994
mp-1222844,LaPr3Al4O12,-3.682163975249999
mp-1222849,Li2ScP2HO8,-2.882556334578299
mp-1222850,LaSmCr2O6,-3.1885839595833323
mp-1222852,LaNdZr2O7,-3.8851332553409104
mp-1222853,LaGa3Cu,-0.5282317669999997
mp-1222856,LaGe2PdRh,-0.9059211559999996
mp-1222858,LaNi4Rh,-0.3211001125000005
mp-1222859,Li2La3Nd(SbO6)2,-3.0541151131666675
mp-1222862,LaPrNi10,-0.271180406666667
mp-1222866,Lu10Al4Ge11,-0.6783853759999999
mp-1222868,LaNdNi10,-0.2780680570833335
mp-1222870,LaMo6(SeS)4,-1.0322566304583327
mp-1222871,LaNi4Pt,-0.4528298458333341
mp-1222874,LaPr3Al4O12,-3.680076411249999
mp-1222878,LaTaTiO6,-3.665206843055556
mp-1222884,LaAlSi,-0.6777628916666671
mp-1222885,LaErSe2,-1.8498888524218755
mp-1222890,LaFeSi2Rh,-0.8433360309999998
mp-1222896,LaNi3Rh2,-0.3528164158333347
mp-1222898,LaAlCu4,-0.2801916508333336
mp-1222899,LaCeB12,-0.5358250728571434
mp-1222903,LaAl2Pt3,-1.1029035291666662
mp-1222905,LaCePd6,-0.8395586012500003
mp-1222910,Lu5Co19P12,-0.8947366341071432
mp-1222912,LaCeB12,-0.534816219285715
mp-1222913,LaCeRu4,-0.2109783483333333
mp-1222916,LaCu2Ni3,-0.2606321774999998
mp-1222917,LaGd3(ClO)4,-3.5031512144200008
mp-1222918,LaCeN2,-1.6113906461900012
mp-1222919,LaCuGe,-0.644817121666667
mp-1222925,LaPr3(CoP)8,-0.9654040094285726
mp-1222929,LaAlNi4,-0.4657971558333334
mp-1222935,LaAlZn,-0.4399827183333335
mp-1222939,LaCeBe26,-0.1421054100000002
mp-1222941,LaGaNi4,-0.4150315425000001
mp-1222942,LaCu3Ni2,-0.2339344491666667
mp-1222946,LaCeRh4,-0.7088522983333334
mp-1222951,LaGd3(BrO)4,-3.159046048333334
mp-1222952,LaCe(SiPd)4,-0.9229972789999998
mp-1222953,LaAs2Au,-0.8178804374999995
mp-1222955,LaPrCr2O6,-3.16821281875
mp-1222960,LaCuNi4,-0.2726388358333338
mp-1222964,LaCe(MnSi)4,-0.5667602398620687
mp-1222965,LaYIn6,-0.4480935085416671
mp-1222979,LaHoSi2O7,-3.686208246477274
mp-1222987,LaNi5H6,-0.2970272705599998
mp-1222988,LaH3(SO4)3,-2.177735743433421
mp-1222995,LaMnCuGe2,-0.497312602931035
mp-1222999,LaZrTa3O11,-3.596189863359374
mp-1223,La4Sb3,-1.134252119285714
mp-1223001,LaThUS5,-2.2780745716406257
mp-1223006,LaAl2Ag3,-0.3398359925000005
mp-1223012,LaNi2GeP,-0.8543059787142866
mp-1223024,La4FeAs4Ru3O4,-2.0078569434375
mp-1223029,LaThPb6,-0.3396409531249995
mp-1223032,Li9Nd2(PS4)5,-1.3493801355654762
mp-1223039,KTaWO6,-2.7250871717222225
mp-1223048,La2ZnSb4,-0.7977255678571424
mp-1223049,La4Br3ClO4,-3.3251961131883334
mp-1223052,La2ZnBi4,-0.6332617850000004
mp-1223053,La4FeAs4Ru3O4,-2.01067233875
mp-1223055,La4MgCr3O12,-3.2216633079166663
mp-1223057,LaAg(MoO4)2,-2.327318559861111
mp-1223064,La3Gd(ClO)4,-3.567026042753335
mp-1223069,La4Se7S,-1.8276260582942705
mp-1223072,La4BrCl3O4,-3.507829753731668
mp-1223074,La4Cu3Sb8,-0.7665879133333334
mp-1223076,La4B4I5,-1.1379065821794874
mp-1223082,La4Cu4SeS3O4,-2.3457885654199213
mp-1223083,La3Nd3Al22,-0.3895755162500001
mp-1223084,LaGa2Pt3,-0.9222406875000004
mp-1223085,La3Si2ClO8,-3.6657850263042846
mp-1223088,La4Cu4Se3SO4,-2.247151645947267
mp-1223089,La3Nd(CuO4)2,-3.065526364642857
mp-1223092,La3NdZr4O14,-3.902067292386364
mp-1223097,Li2HN,-0.6190280610833332
mp-12231,SnTe3O8,-1.663457239791666
mp-1223100,La4Fe(NiO4)3,-2.5347778495
mp-1223101,La8(BiSb)3,-1.0335867403571426
mp-1223108,LiU4As3O20,-2.83013398095238
mp-1223110,La4SbTe7,-1.36954876875
mp-1223111,La4Bi2Pb,-0.8199724871428573
mp-1223112,La3Al2Ga3SnO14,-3.090355623152175
mp-1223114,La4CePd15,-0.8345308582500003
mp-1223115,La4Sb2Pb,-0.9575370835714284
mp-1223117,La8Te3SeO8,-3.324660190117187
mp-1223121,La2SbO2,-3.0053871795000004
mp-1223126,La3Si7Ni3,-0.7797918938461543
mp-1223128,LaTi6Bi7O24,-2.718182791973684
mp-1223129,Li4SiO4,-2.699099197407408
mp-1223135,La3NdCr4O12,-3.1868815230000003
mp-1223136,La8(BiPb)3,-0.7711305607142863
mp-1223139,La4BiPb2,-0.7227885199999997
mp-1223141,La6Mg(SiS7)2,-2.18427148682971
mp-1223143,La3SmCr4O12,-3.1949232116666666
mp-1223147,La4Cu5As8,-0.8115984758823529
mp-1223149,La6Zn(SiS7)2,-2.1102370190760875
mp-1223150,La4SnBi2,-0.8773663085714283
mp-1223152,LaMgAl11O19,-3.4740497311588543
mp-1223153,La5Pb3O,-1.234907972361111
mp-1223157,La6Cd(SiS7)2,-2.1043003266847835
mp-1223161,La6ZnSb15,-0.7317071445454549
mp-1223163,La4ZnCu(RhO6)2,-2.587384566499999
mp-1223164,La2Nd(MnSi)6,-0.5533696625287358
mp-1223166,La4Fe(NiO4)3,-2.540942736249999
mp-1223175,La6Cr(SiS7)2,-2.0978043858152176
mp-1223176,LaCeSn6,-0.5632314874999995
mp-1223179,LaCeIn6,-0.4424815800000004
mp-1223181,La4SnSb2,-1.014528103571428
mp-1223184,La3Se4Cl,-2.160274736579375
mp-1223190,La3Pr(CoP)8,-0.9932118674285718
mp-1223191,La6Mn(SiS7)2,-2.11307056840892
mp-1223194,La4As2(S2O)3,-2.433337568166668
mp-1223196,La5Al15Cu4Au,-0.5119705401999994
mp-1223199,La6NbGa11O28,-2.9133069014130446
mp-1223200,La6TaGa11O28,-2.939121079239132
mp-1223202,La2NiPt,-0.7513067424999997
mp-1223204,La7CoI12,-1.3164597050000002
mp-1223212,La6CuSb15,-0.7241597711363639
mp-1223214,La2NiRhO6,-2.54607399075
mp-1223217,La4Ti3(SO2)4,-3.304404662763158
mp-1223220,La2ThTa(ClO2)3,-3.6284153644061536
mp-1223222,La4C2I5,-1.1864745659090916
mp-1223223,La2BrClO2,-3.415590454293335
mp-1223228,La2CuSi3,-0.6708235441666665
mp-1223229,La2Ge4IrRh3,-0.894575871
mp-1223233,La2VFeO6,-3.119109636750001
mp-1223239,La2Al7Cu,-0.4225418880000006
mp-1223240,La5AlSi2O13,-3.771535266726191
mp-1223242,La2Mn3FeSi4,-0.558972021896551
mp-1223243,La2Cu2SeSO2,-2.2982418884960945
mp-1223245,LaCe4(SiRu)10,-0.8841035129999989
mp-1223247,La6Fe(SiS7)2,-2.0723746375543475
mp-1223249,La2(TlSn)3,-0.4875060862499998
mp-1223250,La2MnFeSe2O3,-2.44278117767252
mp-1223251,La2(TlPb)3,-0.4027912424999997
mp-1223252,La2AlGe,-0.6561802600000002
mp-1223255,La(SmB8)3,-0.4799756644642851
mp-1223259,La2CoNiO6,-2.570377417249999
mp-1223262,La6Sb4(SO4)3,-2.9076905477749992
mp-1223267,La2(MgAg3)3,-0.2799483928571428
mp-1223272,La2Si2PbSe8,-1.2793692079807686
mp-1223276,La(CeB8)3,-0.5268461164285715
mp-1223278,Li(TiS2)2,-1.770824685595238
mp-1223289,La6Cr(GeS7)2,-2.002542844945653
mp-1223291,La2Cu3Ni,-0.2433658766666665
mp-1223292,La2(CuNi)5,-0.2472022349999996
mp-12233,ZnB4O7,-2.696471941006944
mp-1223301,La2Al3Cu7,-0.3328419399999998
mp-1223306,La(Tl3Te2)3,-0.5127547521875
mp-1223308,La2NiSn4,-0.6730125014285713
mp-1223311,KRbCl2,-2.238909721755
mp-1223312,KTi3NbO9,-3.2822048442321434
mp-1223314,La7Nb3(W2O15)2,-3.199600908693181
mp-1223315,KY(NbCl3)6,-1.893584212115897
mp-1223319,Li3U7(AsO7)5,-2.852948223875001
mp-1223321,KTaSi2O7,-3.224813146295455
mp-1223322,KRbMnF6,-2.916276126472797
mp-1223324,Li2MoO3,-2.1865361282638887
mp-1223330,Lu4V5B18,-0.726322773333333
mp-1223335,La2FeNiO6,-2.681594462749999
mp-1223339,La2Ga5Cu3,-0.4852311780000001
mp-1223343,KTiNbO5,-3.1197941695937503
mp-1223346,La4Ti5(TeO8)3,-3.0878990058333327
mp-1223347,KSbWO6,-2.1519063006111114
mp-1223353,KRb(InAu2)4,-0.2596435843214288
mp-1223357,KRb(Fe2S3)2,-1.0109519082708331
mp-1223358,Mn26As18CO57,-1.894044652423965
mp-1223361,La6Si2NiS14,-2.070848396250001
mp-1223362,La7Ta3(W2O15)2,-3.272195600511364
mp-1223363,KSO2F,-2.324732597963
mp-1223368,La2Mn(SeO)2,-2.603207546828954
mp-1223369,La2CrFeO6,-3.078209161249999
mp-1223370,La8Si5N14O,-1.709358456770357
mp-1223371,La2Al3GaPd4,-0.8624866680000004
mp-1223375,La5Cu6S7O4,-2.110776338721592
mp-1223385,KSb5O13,-1.9010966328552623
mp-1223388,Na11(Ru4O9)4,-1.546384053333333
mp-1223394,KTaTiO5,-3.250524726781249
mp-1223396,KNbWO6,-2.600386535055555
mp-1223398,KNaTi4(PO4)6,-3.0332809910952374
mp-1223400,KNbCl6,-1.87923244907
mp-1223401,KNb4AsO13,-2.7907086333815805
mp-1223402,KNbWO6,-2.590850542277778
mp-1223406,KRbTi4(PO4)6,-3.038943268942461
mp-1223407,KNb4Ag(PS10)2,-1.1033156287848649
mp-1223411,La4Ni3Sn8,-0.6638747179999995
mp-1223417,La2(MoO4)3,-2.719418733235293
mp-1223421,KPr9(Si3O13)2,-3.627058167154763
mp-1223424,La4Pr(CoP)10,-0.9875713776285716
mp-1223425,La6S3(OF4)2,-3.950231679810263
mp-1223427,La2Ni4GeP3,-0.9204221545714284
mp-1223428,LaCeNi10,-0.3146208091666669
mp-1223429,KNaP6(PbO3)8,-2.387434596485714
mp-1223430,LaB3F12,-3.5266613332883328
mp-1223434,LaCeSb2(SBr)4,-1.4942974408333338
mp-1223435,KNaCaMg5Si8(O11F)2,-3.265221425738668
mp-1223438,Na4La31(CoI12)5,-1.3288273475999994
mp-1223441,KBaLiZnF6,-3.301378531180667
mp-1223442,KSnAuSe3,-0.5920153191718747
mp-1223443,KBiS2,-1.1243615373125002
mp-1223445,KNb4Bi5O18,-2.423728132696428
mp-1223446,KIO3,-1.37377040835
mp-1223447,KLaF4,-4.04733000046
mp-1223448,LaCeSi2(BO5)2,-3.427604442239583
mp-1223449,LaGa2Ni3,-0.5114176802777782
mp-1223450,KSrB(PO4)2,-2.970188016934066
mp-1223451,KCeF4,-3.93544902046
mp-1223460,KSnAuS3,-0.9379459120624992
mp-1223466,La6Mg(GeS7)2,-2.089901230742754
mp-1223467,La2Ni4Ge3P,-0.7750581228571434
mp-1223468,KTaW2O9,-2.5576572372500013
mp-1223469,KLiZn3O4,-1.822344182185185
mp-1223470,KNa7Al8(SiO4)8,-3.1570059803214283
mp-1223473,KBH4,-0.489891722635555
mp-1223474,KHCO3,-1.9186609667283328
mp-1223475,KNaCaTh(Si2O5)4,-3.3232380333750005
mp-1223478,KCr5Se8,-0.6413041708392859
mp-1223480,KNd9(Si3O13)2,-3.639310480130953
mp-1223483,KNaAs6(PbO3)8,-1.81243057245
mp-1223484,KV3(PbO3)4,-2.137000202899999
mp-1223486,La9Al5Se21,-1.6353499475491065
mp-1223487,La12Si4SnS28,-2.1147960712777785
mp-1223488,KIn5S8,-1.0278177755714286
mp-1223493,KBa2Nb3O9,-3.1064354609500007
mp-1223494,KNaSr8(BO3)6,-3.121305185112744
mp-1223496,KNi2H3(SeO5)2,-1.3686506031137498
mp-1223497,La2Ge4Pd3Pt,-0.8750346530000002
mp-1223499,KBa(AgTe2)2,-0.7388152474583336
mp-1223500,KBa3(BiO3)4,-2.0837198044
mp-1223503,K5As4,-0.4374092038888888
mp-1223505,KNaHf4(PO4)6,-3.266236233039683
mp-1223506,KBa2Bi2O7,-2.131696813479167
mp-1223510,KBiPb,-0.2601591226666666
mp-1223511,LaGd(CuSn)4,-0.4228965555000002
mp-1223512,KMg3AlSi3(O5F)2,-3.3265504036439992
mp-1223515,KCu2H3(SO5)2,-1.6992052104227768
mp-1223518,KBa2(BiO3)3,-2.02694233295
mp-1223519,KNa7V8O24,-2.3879183084500006
mp-1223521,La2Ge4IrPd3,-0.8520537329999996
mp-1223523,KLu(NbCl3)6,-1.8896313981415385
mp-1223526,KBaB(PO4)2,-2.975683589498168
mp-1223527,KMg3AlGe3(O5F)2,-2.822778962394
mp-1223528,KGaGeS4,-1.1385817832857146
mp-1223533,La4Zr8Ni15As16,-0.9172757574418604
mp-1223535,KCd4Ga5S12,-1.1005939650227274
mp-1223537,La9Ga5Se21,-1.5093938185491067
mp-1223540,KNb3(PO5)3,-2.902794879657466
mp-1223543,KH3(SeO3)2,-1.451351459878958
mp-1223547,KMg3GaSi3(HO6)2,-2.847754286829092
mp-1223548,KCo2H3(SeO5)2,-1.450993114502639