material_id,pretty_formula,formation_energy_per_atom
mp-19254,FeSO4,-2.058662553854166
mp-19256,Er2Mn2O7,-2.916779257725486
mp-19260,Li2WO4,-2.34868254547619
mp-19262,Cr2CdO4,-2.16197448142857
mp-19264,Co3(PO4)2,-2.226007151318682
mp-19265,DyNiO3,-2.4371501437500003
mp-19266,Sr2FeWO6,-2.711854810083333
mp-19269,NdCrO3,-3.15382091425
mp-1927,Dy4Sb3,-0.989751775
mp-19272,TbCrO4,-2.791298119999999
mp-19276,BaMoO4,-2.719585796666666
mp-19279,Li2MnO2,-2.030683737289701
mp-19280,NaCr3O8,-1.9199304125
mp-19281,LaCrO3,-3.20860066625
mp-19287,NaV(SiO3)2,-2.955692687
mp-1929,NdB6,-0.4753215499999998
mp-19290,Mn2As2O7,-1.9135997177254864
mp-19291,NaVPO5,-2.641454583727678
mp-19292,Co(AsO3)2,-1.6623738819444454
mp-19296,SrVSi2O7,-3.14233147685606
mp-19299,CrBO3,-2.632096124416665
mp-193,Zr2Cu,-0.1323834633333334
mp-19300,La2MoO6,-3.22438515888889
mp-19302,NaCaVO4,-2.7806148407142857
mp-19305,CaV2O5,-2.807689349531249
mp-19306,Fe3O4,-1.8586792685714293
mp-19311,V2CoO6,-2.1487982241666668
mp-19313,Zn(FeO2)2,-1.890299267142857
mp-19315,Sr2MnWO6,-2.77026246014485
mp-19318,Ag2MoO4,-1.3097690266666666
mp-1932,Nb3Os,-0.2416816462500008
mp-19320,K2FeO4,-1.5118308880000002
mp-19322,BaMoO3,-2.59231404075
mp-19323,SmVO4,-3.197158500555556
mp-19324,Ca2MgWO6,-2.9979035915833334
mp-19326,MnO2,-1.815958168538392
mp-19330,CaMoO4,-2.705682977499999
mp-19331,MnNiO3,-1.555744432873034
mp-19333,Fe2B2O5,-2.3769268592129627
mp-19334,Na4WO5,-2.148767737125
mp-19335,KCr3O8,-1.9582427673333336
mp-19337,Ba3CoSb2O9,-2.454686734749999
mp-19338,LiMoO2,-2.0518323347916656
mp-19339,LaNiO3,-2.40552638775
mp-1934,LiZn,-0.2188159583333333
mp-19340,LiVO2,-2.4973162885416667
mp-19341,Tl2WO4,-1.6978168399999995
mp-19342,WO3,-2.1743911303124994
mp-19343,Co4B6O13,-2.399443980271738
mp-19344,Cr2NiO4,-1.99281776
mp-19345,ErMn2O5,-2.670076924372543
mp-19347,CaV3O7,-2.7176138876136364
mp-19349,NaMn(SiO3)2,-2.7975827138115164
mp-1935,BaMg2,-0.0742458763888889
mp-19350,LaVO3,-3.28518975275
mp-19352,KAl(MoO4)2,-2.436391161916666
mp-19354,PrMn7O12,-2.2484710672153083
mp-19357,LaCrO3,-3.2011741847500006
mp-19359,NaFeO2,-1.9323276868750003
mp-1936,TaAs,-0.5360101050000008
mp-19360,LuCrO4,-2.798222592499999
mp-19361,Cr2(SO4)3,-2.1439720296691176
mp-19362,KFe(MoO4)2,-2.1147601140000005
mp-19363,HgMoO4,-1.6060778166666665
mp-19365,Ba3V2O8,-3.025792684615385
mp-19367,NaCr(SiO3)2,-2.9080785742500006
mp-19368,Sr2V2O7,-2.921363828143939
mp-1937,YbCu,-0.2896442008333335
mp-19375,CeCrSe2O,-1.8879810981875005
mp-19377,LiLa2MoO6,-3.1072349669166663
mp-19378,CrAgO2,-1.698485026458333
mp-19379,CoSO4,-1.9015036817708333
mp-19380,CrHgO4,-1.3110951666666657
mp-19383,Ti4Mn(PO4)6,-3.0031690229155354
mp-19384,Ni(AsO3)2,-1.571558405277778
mp-19386,Sr3V2O8,-3.0253288815384614
mp-19387,CdWO4,-1.9905068633333325
mp-19388,BaNi2(AsO4)2,-1.9068818869230768
mp-19389,Ba2NdMoO6,-2.99431322975
mp-1939,ErNi2,-0.4805577333333334
mp-19390,WO3,-2.1728841909374994
mp-19391,NaVO2,-2.351753678125
mp-19393,NdMn2O5,-2.622812195935043
mp-19395,MnO2,-1.820413288538391
mp-19399,Cr2O3,-2.3813650907499992
mp-19401,CrPO4,-2.6090537083730143
mp-19402,V4Ag2O11,-1.976059780612745
mp-19403,Ba2CaMoO6,-2.94482532125
mp-19407,MnWO4,-2.2144527251025288
mp-19409,Mn(AsO3)2,-1.845514886179463
mp-19410,ZnCr2O4,-2.290019453571428
mp-19418,VCrO4,-2.364732045
mp-19420,Sr2MgWO6,-2.9796941264166663
mp-19421,FeWO4,-2.0979684750000005
mp-19424,TiCoO3,-2.683511525250001
mp-19426,CaWO4,-2.7227825358333333
mp-19427,Na7(CoO3)2,-1.5529536145
mp-19428,K2RbTbV2O8,-2.7374466788214287
mp-1943,GaSe,-0.5910185299218749
mp-19432,KNaV2O6,-2.41582406905
mp-19436,La7Mo7O30,-2.911527061647728
mp-1944,CoP3,-0.4973704751785712
mp-19440,LiVO3,-2.4330817055833336
mp-19441,CaCr(Si2O5)2,-3.1740569418749995
mp-19442,Mn(Ni3O4)2,-1.2197929807076784
mp-19443,WO3,-2.1746644596875
mp-19446,CaMn(SiO3)2,-3.124228011311517
mp-19447,Cs2NaVO4,-2.302237223857759
mp-19448,Ni3TeO6,-1.2788156522500005
mp-19449,NaVCdO4,-2.1397059457142853
mp-1945,NdCu6,-0.1328446564285721
mp-19450,ScTl(MoO4)2,-2.4139018054166663
mp-19452,V2Cd(P2O7)2,-2.60797218484694
mp-19453,Te2MoO7,-1.711357627625
mp-19455,MnMoO4,-2.129638724269196
mp-19458,BaV10O15,-2.523793776105769
mp-19459,K2MgV2O7,-2.568772697340277
mp-19461,Na5Nd(WO4)4,-2.397753063846153
mp-19462,KP2WO8,-2.559064398553572
mp-19464,Na5Lu(MoO4)4,-2.396337009423076
mp-19467,AgMo3P3O16,-2.258912317567288
mp-19469,Na5Tb(MoO4)4,-2.398449295
mp-19471,Ba5Sm8Mn4O21,-3.22325370619414
mp-19474,Ba2V2O7,-2.9292782685227268
mp-19479,Na5La(MoO4)4,-2.401906949230768
mp-1948,LaAg,-0.2541698591666668
mp-19480,SmTl(MoO4)2,-2.436571042777777
mp-19481,Rb2V(PO4)2,-2.676053071318681
mp-19484,BaCaV2O7,-2.9225150285227275
mp-19487,Ba2Mn(PO4)2,-3.0744762134813866
mp-19488,Rb2MnSO4F3,-2.5828819915736507
mp-19489,SmCo(BO2)5,-2.8862843145588224
mp-1949,TiMn2,-0.2717279356034486
mp-19490,PrTl(MoO4)2,-2.425283681041666
mp-19496,KV2SbO8,-2.247898842333333
mp-19497,Na5Y(MoO4)4,-2.393869056858974
mp-19499,KY(MoO4)2,-2.6073564644861107
mp-195,HoPt3,-1.0249772549999996
mp-19501,Ba6Na2V2Ru2O17,-2.6104978060775856
mp-19503,MnTe2O5,-1.6851115600768978
mp-19508,SrCr(Si2O5)2,-3.1813320243229173
mp-19509,SrV10O15,-2.502444000016027
mp-19510,V2Cd(PO5)2,-2.4883035548095243
mp-19511,Li5FeO4,-2.1167573937083333
mp-19512,BaV2(PO5)2,-2.826422345809524
mp-19518,BaCr(Si2O5)2,-3.1794399675000005
mp-19520,NdNi(BO2)5,-2.827700420686275
mp-19521,Al2(MoO4)3,-2.472837565147059
mp-19522,P2W2O11,-2.382208320559523
mp-1953,TiAl,-0.4071641199999991
mp-1955,ErCu,-0.2733726149999995
mp-1956,TmGa2,-0.6007156427777774
mp-1958,SrTe,-1.7426873183333336
mp-196,Al5Co2,-0.4609047107142854
mp-1960,Li2O,-2.066696434861111
mp-19617,Rb(WO3)3,-2.231639944519229
mp-1963,NbRh,-0.414212195000001
mp-19660,Sr2V2O7,-2.9226025239393936
mp-1967,TaTe2,-0.3628238662962962
mp-1969,NbSb2,-0.269913063333334
mp-1971,HoCu,-0.2667799050000008
mp-19712,PrAgPb,-0.4613877311111108
mp-19713,Sc3In,-0.2954346799999996
mp-19714,GdGeRu,-0.7002483558333333
mp-19716,Sm3InN,-0.992671666476
mp-19717,TePb,-0.405773505
mp-19718,CeInAu,-0.6140131449999997
mp-19722,MnCu2SnS4,-0.7384361777693966
mp-19727,PbCN2,-0.0757681568149992
mp-19728,YSiRh,-1.0616030386111106
mp-1973,NbGa3,-0.3084700449999999
mp-19731,CeMgPd,-0.5581045261111109
mp-19733,Ce2In,-0.2266340199999999
mp-19734,MgPbF6,-2.881553717559167
mp-19739,Sc(FeGe)6,-0.2812774565384603
mp-1974,CeB4,-0.6277472466666666
mp-19740,YInPt,-0.9943227655555558
mp-19741,CeNiC2,-0.2337641762500002
mp-19743,LaFeGe3,-0.471449324999999
mp-19746,NbPbS2,-1.2103894315625006
mp-1975,TmN,-2.0139291328566653
mp-19751,Ba2YbNbO6,-3.169359558416667
mp-19753,Gd(SiPd)2,-0.9431160759999996
mp-19754,TmCoC,-0.3519423844444442
mp-19756,GdB2Rh2C,-0.5986677627777782
mp-1976,CaGa4,-0.3667765329999998
mp-19760,Na2Mo2O7,-2.1795263669318192
mp-19764,Pr3In,-0.2732318062499992
mp-19765,In2HgTe4,-0.2941616371428571
mp-19767,DyCoSi,-0.7245680516666665
mp-19768,NiAsRh,-0.410008591666666
mp-19769,Tb3InN,-1.0581405484759998
mp-1977,NdSn3,-0.5133432925000001
mp-19770,Fe2O3,-1.90735834275
mp-19771,Dy(CoGe)2,-0.5723380740000004
mp-19773,GdGa2,-0.6546583433333323
mp-19782,TbInCu,-0.4141121077777778
mp-19783,GdAg2,-0.2853461722222216
mp-19787,Sr(GeRu)2,-0.5019850893333327
mp-19788,Tb2Ge2Ru,-0.7981058399999995
mp-19789,Mn(BW)2,-0.3588633022643677
mp-1979,HoPd3,-0.9082224025
mp-19790,Rh(OF3)2,-1.3469884332933335
mp-19791,Ca(GeRu)2,-0.5190099069999995
mp-19795,InS,-0.8231209728124997
mp-19796,Ba2Nb5O9,-2.884675654453124
mp-19799,BaPbF6,-3.0540514458925
mp-1980,YbNi2,-0.4429353938888892
mp-19802,TbCoO3,-2.6842459642500005
mp-19803,CdIn2O4,-1.860357665
mp-19804,In2Co3S2,-0.5090393273214288
mp-19806,USiIr,-0.6750381933333335
mp-19807,Co3(SnS)2,-0.5447933887499994
mp-1981,Ba2Sn,-0.6135656850000002
mp-19810,TaNiTe2,-0.3840071862499998
mp-19811,USnRu,-0.2722253588888905
mp-19814,NiAs2,-0.2562136283333339
mp-19816,Sm2In,-0.3431582272222222
mp-19817,Y3InC,-0.5326560959999995
mp-19818,Dy3PbC,-0.5391206019999999
mp-19819,GdIn,-0.4848400799999997
mp-1982,Al21Pt8,-0.7566054001724134
mp-19820,TmPb3,-0.2161293033333331
mp-19821,Cr2GeC,-0.0772465699999997
mp-19830,ErN,-1.96861464119
mp-19833,InAgS2,-0.7572313823958332
mp-19835,Nb2InC,-0.407688555
mp-19839,LaGa2,-0.7035851916666663
mp-1984,TaS2,-1.4907693054166664
mp-19841,ErGeRu,-0.7347725841666666
mp-19843,CeAlO3,-3.6256686447499993
mp-19844,Na(FeSb3)4,-0.0789179632352941
mp-19847,Tm3InN,-1.0927746624759995
mp-19848,PrCuSb2,-0.6723817362500002
mp-19850,MnCo2Ge,-0.2618662999137928
mp-19851,KInTe2,-0.6975941357499997
mp-19852,Ba2UMnO6,-3.2709930458115166
mp-19854,Pr2In,-0.3354007316666667
mp-19855,Cr7C3,-0.099255776999999
mp-19856,SnPt,-0.5809604149999998
mp-19857,Ba(MnP)2,-0.6986386532906408
mp-1986,ZnO,-1.791167493125
mp-19865,Ce(MgSi)2,-0.4294197923333328
mp-19870,GaFe3,-0.135862275
mp-19871,PbAu2,-0.0714586649999997
mp-19873,DySiRu,-0.8315609708333346
mp-19875,GdSiRu,-0.8182880749999993
mp-19876,InNi,-0.1748728950000006
mp-19879,PPd3,-0.481779979642857
mp-19880,FeTe2,-0.1809064416666661
mp-19881,Dy3InC,-0.4942662740000003
mp-19882,MnBPbO4,-2.2261366366355
mp-19886,ThSnPt,-1.075271103333333
mp-19887,Nb(FeGe)6,-0.1639165423076922
mp-1989,Ta5Si3,-0.6185199256249998
mp-19893,PbCO3,-1.81879372975
mp-19894,Cr2WO6,-2.3088787980555545
mp-19895,NiSb2,-0.1974194200000004
mp-19896,Li2GePbS4,-1.143247636979167
mp-19898,LaGeRu,-0.7003964350000006
mp-19899,Dy3SnC,-0.6313662579999999
mp-1990,Mg3As2,-0.6270445782500002
mp-19900,La(GeRu)2,-0.6465234690000002
mp-19903,V2Pb3O8,-2.0703299
mp-19905,Co2Si,-0.4535011241666661
mp-19906,Zr2InNi2,-0.4971191750000002
mp-19910,Ce2MgNi2,-0.3147968206666668
mp-19911,TmIn5Co,-0.2017903154761912
mp-19913,Ba3(InP2)2,-0.7884526471428575
mp-19914,RbGdTe4,-0.9485656712500004
mp-19915,Sr4In2N,-0.5413432834352382
mp-19917,ZrSiTe,-0.8002026783333337
mp-19918,GdGe,-0.859874940000001
mp-19920,Ce3Ga,-0.2468689387500005
mp-19921,PbO,-1.4756550581249996
mp-19922,LuNiGe,-0.8168926900000008
mp-19923,GdAl2,-0.5310007750000002
mp-19924,USeS,-1.5156710543229164
mp-19926,La2Be2GeO7,-3.281784542812501
mp-19927,CeZnGe,-0.5929499891666664
mp-1993,Tm5Mg24,-0.0329963022988506
mp-19930,Nd2Ru2O7,-2.516948865795456
mp-19931,Na2MgAlF7,-3.6018973983330302
mp-19934,CeMgPt,-0.8418656983333332
mp-19936,Sc(MnGe)6,-0.3250825209946948
mp-19939,La(CoGe)2,-0.5519685830000007
mp-1994,HfB2,-1.0178790288888884
mp-19940,VAs,-0.4975900850000005
mp-19942,BaGdAuSe3,-1.5156561720052082
mp-19943,YCuSb2,-0.6121368445833326
mp-19944,Sr3PbO,-1.59086002625
mp-19945,Gd2MgGe2,-0.7721774866666664
mp-19949,Sc2Cu2Ge4O13,-2.3365639522023813
mp-19950,Dy2Ti3Si4,-0.8094305530555559
mp-19955,Co2CuGe2,-0.1838184289999994
mp-19956,Ba2InO3F,-2.8782004442771423
mp-19957,LaGeBO5,-3.0141267007812496
mp-19959,LuTiGe,-0.6997598549999999
mp-19961,CeIn5Co,-0.2451794428571432
mp-19962,Sn2Pt,-0.4590855599999995
mp-19963,TiFe2Sn,-0.2743552974999987
mp-19966,GdTl,-0.380439149999999
mp-19970,Li3CuO3,-1.7879449319642855
mp-19971,ZnCo2Ge,-0.1427905337500004
mp-19973,LaCoGe3,-0.6209385019999999
mp-19974,In2Ag,-0.0135696177777777
mp-19976,Ce4S3O4,-3.331920291761364
mp-19977,SmIn3,-0.4506699633333335
mp-19979,La(NiGe)2,-0.651438375
mp-19985,TlIn(PSe3)2,-0.2775558631205349
mp-19986,DyGeRu,-0.7230355841666665
mp-19988,SmGa5Co,-0.45968734547619
mp-19989,Ce2In8Co,-0.3045550304545456
mp-1999,Sb2O3,-1.7524281812500009
mp-19991,SrIn4Pd,-0.4464238902777779
mp-19992,La6UO12,-3.949319437105263
mp-19996,Ba2GdNbO6,-3.42807404475
mp-2,Pd,0.0
mp-200,LaP7,-0.4309759490624998
mp-2000,CuSe2,-0.0832443615624995
mp-20000,Nd(NiSn)2,-0.5380698289999998
mp-20001,SrSnPt,-0.8601608913888885
mp-20003,Ce(Al2Cu)4,-0.3068447619230771
mp-20004,Zr2InC,-0.6926484075000001
mp-20007,MnNiGe,-0.2612444573850586
mp-2001,LaTl3,-0.3654976887499996
mp-20010,DyCuGe,-0.6892733766666671
mp-20012,InSb,-0.1027004874999999
mp-20014,AlVMoO7,-2.5020624438750003
mp-20015,As2PbO6,-1.745973251944444
mp-20016,SmCoO3,-2.629047113916667
mp-20020,NdCuSb2,-0.6669696987500009
mp-20021,DySn2,-0.6004325466666671
mp-20022,CeGeIr,-0.8886831308333333
mp-20023,PrIn,-0.4875961475000001
mp-20024,LaCuSn,-0.6012767333333334
mp-20025,Mn(GaS2)2,-1.0429081517364531
mp-20027,FeP2,-0.5370093490476187
mp-20028,FeBPbO4,-2.161100451190476
mp-20033,SnIr,-0.2516017525
mp-20034,CaPb,-0.5180016224999999
mp-20037,PrInRh,-0.6889404127777775
mp-20043,ErGeRh,-1.0006518366666672
mp-20044,La(NiAs)2,-0.8731159169999998
mp-20046,LiCoAsO4,-1.870403373095238
mp-20048,U(Ni2P)2,-0.6786661481632663
mp-20049,LiFeP,-0.6529427000793652
mp-20051,CeBPt4,-0.7607412355555555
mp-20052,LiMnAsO4,-2.087850061754549
mp-20054,TbGe2Pt,-0.8798871737500003
mp-20058,GdAlPd,-0.8593093966666664
mp-2006,V3Ir,-0.4997881424999999
mp-20064,DyGa2,-0.6425615966666663
mp-20066,CO2,-1.7803236574999997
mp-20067,Na5OsO6,-1.809865375208333
mp-20072,LaCuO2,-2.6964175318749994
mp-20074,SrIn2,-0.4469910488888888
mp-20076,KCrF6,-2.6467052225175
mp-20078,Pb2O3,-1.4025396102499996
mp-20079,CaPbO3,-2.18362094275
mp-2008,FeAs2,-0.2647679800000008
mp-20082,Yb(As2Rh3)2,-0.7037848496969691
mp-20083,ScCuSi,-0.6600954766666666
mp-20084,GdRh2,-0.7460005733333333
mp-20085,LaTiGe3,-0.722079266
mp-20088,Na4PbO4,-1.6215459738888884
mp-20090,PrCoO3,-2.56172953875
mp-20096,MnSnF6,-2.9354659184693963
mp-20098,Ba2PbO4,-2.377789559285714
mp-201,Yb5Sb3,-0.9619097329166668
mp-20102,Gd(PdO2)2,-1.97896166
mp-20103,TmInPt,-0.9901560433333336
mp-20108,CaIn4Pd,-0.4238204991666669
mp-20109,Th2NiB10,-0.5974549487179487
mp-2011,UP,-0.9678020242857156
mp-20112,Ni3Sn,-0.18975948875
mp-2012,LiHg,-0.3738297983333334
mp-20121,UFeSi,-0.445453340833333
mp-20122,DyGe,-0.8723936749999996
mp-20123,Te2Au,-0.0899058720833328
mp-2013,HoTl3,-0.2167287799999995
mp-20131,YIn3,-0.4185800783333331
mp-20132,InHg,0.0048521249999997
mp-20136,BaPb,-0.5882528825
mp-2014,DyP,-1.6094258742857148
mp-20144,NbCrP,-0.6835426678571418
mp-20145,TiGaCo2,-0.5276831524999999
mp-20147,ZrMnP,-0.9268065777422017
mp-2015,Nd3Ge5,-0.7460578174999997
mp-20150,LiCa2Si3,-0.4597726819444438
mp-20152,In(MoSe)3,-0.4249852981473206
mp-20157,BaGdCuSe3,-1.586685379505208
mp-20163,Th2S3,-2.352539018875001
mp-20165,Ce2InPd2,-0.7528418950000002
mp-20168,Cr2FeO4,-2.2585864957142854
mp-2017,LuAs,-1.4685055799999995
mp-20173,Ce(CuGe)2,-0.4587394770000003
mp-20174,Ni3Sn4,-0.2327875685714287
mp-20176,DyPb3,-0.2781613775
mp-20178,CeBO3,-3.414095418416666
mp-2018,AlFe3,-0.195023987499999
mp-20181,Ce2C3,-0.2565186800000006
mp-20184,USiRh,-0.7138917000000014
mp-20185,LuNiSb,-0.8911840516666665
mp-20187,LiInSe2,-0.8703058128385415
mp-20188,GdCuAs2,-0.8337523012499997
mp-2019,LaRu2,-0.1319428516666671
mp-20190,LaZnSn,-0.6802109591666667
mp-20192,HfMnSi,-0.611854589051724
mp-20193,DyCo3B2,-0.496771910277778
mp-20194,CeO2,-3.9381788825
mp-20197,Cr2GaC,-0.1306889137499993
mp-20199,PPbS3,-0.8227024930892852
mp-202,TaTe4,-0.2611415021666659
mp-20201,NdZnSn,-0.6496405008333337
mp-20202,MgSn4Ru,-0.2166029488888892
mp-20205,Yb2Cu2O5,-2.244194811342593
mp-20206,ThIn3,-0.3427629674999997
mp-20208,Sm(Sn3Ru2)2,-0.3436483212121211
mp-20210,Ag2PbO2,-0.8276074788333332
mp-20211,Mn3Si,-0.3002887284913793
mp-20214,UGa3,-0.2394432899999996
mp-20216,MgPb2WO6,-2.141366448083334
mp-20219,CsUCuTe3,-0.7292467871551723
mp-20220,CaInRh,-0.5518322508333332
mp-20222,Sr2NbInO6,-2.992733314083334
mp-20223,Mn2GeO4,-2.128037837675764
mp-20224,GdInPd,-0.8113234588888898
mp-20225,CePb3,-0.3487739562500005
mp-20226,UGeIr,-0.5538392783333338
mp-20227,NaMnP,-0.4367021777422006
mp-20228,MnGaNi2,-0.2873414174137938
mp-20234,Li2BPt3,-0.5685327411111102
mp-20236,DyIn3,-0.4062978150000003
mp-20238,Th(FeGe)2,-0.4464287939999991
mp-20240,YbIn2Pd,-0.6643453529166665
mp-20241,Mg4P6Rh7,-0.7704852873389352
mp-20243,SmFeO3,-2.9087065169166664
mp-20244,ZrPbS3,-1.516689782875001
mp-20245,CeFeSi,-0.6076904949999987
mp-2025,HfBe5,-0.229368490833334
mp-20250,PdS,-0.6858686034375001
mp-20254,Na2Te2O7,-1.6964656267045457
mp-20255,TiCuSi,-0.5418450399999996
mp-20256,K3InP2,-0.3699531460238094
mp-20257,AsPd3Pb2,-0.335701865833333
mp-2026,PrTl3,-0.3368029912499999
mp-20261,Mn(GaSe2)2,-0.5605184998614534
mp-20263,CaIn,-0.4726261475000002
mp-20264,Tb(FeGe)2,-0.4551989579999997
mp-20265,LiIn2Pt,-0.4944937666666669
mp-20268,TiGePd,-0.7134297466666659
mp-2027,HfCo,-0.3967934325000009
mp-20271,LaAgSb2,-0.7489450395833339
mp-20273,Ca3PbO,-1.6960655352499998
mp-20279,NbInSe2,-0.6859836586718746
mp-20281,DySiIr,-1.0664808183333343
mp-20282,CsPbF3,-2.8029265203002067
mp-20283,Co2P2O7,-2.29619957099026
mp-20285,NaPt3O4,-1.083882926874999
mp-20288,CeCO3F,-3.053112782767778
mp-20289,NaInS2,-1.1948874778124998
mp-20290,TbCuPb,-0.3973154466666664
mp-20291,YPb3,-0.2943485933333329
mp-20294,CeIn5Rh,-0.430663877857143
mp-20298,SmIn,-0.4481973166666666
mp-203,NiTe,-0.1883480575000007
mp-2030,RuS2,-0.9920745979166672
mp-20301,La2Pd2Pb,-0.8430646369999998
mp-20303,LaIn4Ni,-0.3921632808333335
mp-20305,InAs,-0.2289677000000001
mp-20308,TmSiRu,-0.8652996594444436
mp-2031,Be2Cu,-0.1353163866666668
mp-20310,LiInSe2,-0.8691950478385415
mp-20311,FeSe,-0.2722688336718741
mp-20312,V2WO6,-2.423439858055556
mp-20313,Fe2SiO4,-2.446865557857142
mp-20315,Ti2InC,-0.6689905124999997
mp-20316,PPbSe3,-0.3152030651205351
mp-20318,Mn2B,-0.3971273508812262
mp-20321,UGeRh,-0.5229638083333334
mp-20322,La(CuGe)2,-0.5191818129999994
mp-20325,Ti3InC,-0.5442358159999998
mp-20326,U(PS3)2,-1.0261179984325397
mp-20327,TiP2,-0.8178576798809516
mp-20328,U3Se4,-1.084446454910715
mp-20329,InAgO2,-1.4042197952083333
mp-2033,Ni3N,-0.0655848630950002
mp-20331,CuSbSe2,-0.2027531142968746
mp-20332,GdMgPd,-0.685223651111111
mp-20335,MnNbP,-0.785655278575535
mp-20336,USn3,-0.1206793125000009
mp-20338,CeAl3Ni2,-0.6089499641666668
mp-20339,Ti2InNi2,-0.4056995759999992
mp-20344,Fe3Ge,-0.1014960599999996
mp-20345,GdCoC,-0.2702977133333324
mp-20350,DyCoC,-0.3152720133333346
mp-20351,InP,-0.2058014592857144
mp-20352,Ba3In2O6,-2.511587247954545
mp-20353,GdGa,-0.6391188500000009
mp-20355,Ce2CoSi3,-0.7536064033333325
mp-20356,Ce2SbO2,-2.9439813795000007
mp-20357,Ce2InPt2,-1.0187235170000002
mp-20358,UInAu2,-0.2206228325000001
mp-20363,LiGa2Pt,-0.6226705341666663
mp-20369,CeIn3,-0.4035666287499997
mp-20374,Ho2C(NO)2,-2.514254572465716
mp-20378,CaInAu,-0.6698066200000005
mp-20381,HfGaPd,-0.722677318888889
mp-20382,Ti6Sn5,-0.3796889495454549
mp-20383,TbSiIr,-1.050439965833333
mp-20384,CeAgAs2,-0.7847318970833328
mp-20385,Nd3InC,-0.3176055500000004
mp-20389,Na2CdPb,-0.1543741074999998
mp-2039,ScMn2,-0.1428186106034488
mp-20390,PrSnPt,-1.0357661138888885
mp-20393,Sr2InPt2,-0.8137634956666666
mp-20395,VAsRh,-0.4707487183333339
mp-20397,Sr(InTe2)2,-0.7274284152380949
mp-20399,Ba2MnMoO6,-2.673052250311517
mp-20400,Ce(GePt)2,-0.8942653739999997
mp-20401,HfCuSi2,-0.47422898625
mp-20402,Lu6UO12,-4.07585069868421
mp-20404,Sm2InPd2,-0.8354390683333328
mp-20405,V2Ga5,-0.2316858421428561
mp-20406,Lu2V2O7,-3.268886798977273
mp-2041,HoZn2,-0.390308363333333
mp-20410,Ho(BC)2,-0.4442989523333338
mp-20411,InN,-0.0805417761900004
mp-20414,U7Te12,-0.6170420026315789
mp-20415,GdPbAu,-0.6826568333333327
mp-20416,SmFeB4,-0.5244058848611104
mp-20418,SiRh2,-0.7343378408333324
mp-20419,Ca4In2N,-0.6975202817685714
mp-2042,HoNi3,-0.4257380208333335
mp-20420,KGdTe2,-1.4138750607499997
mp-20422,KMnP,-0.4252592804088675
mp-20424,MgCo3C,-0.0517512436666663
mp-20428,LiCeGe2,-0.6080158322916667
mp-20431,Ca2FeSbO6,-2.603816494000001
mp-20436,TaSiRh,-0.8397774541666673
mp-20444,GdIn2Rh,-0.6209944837499997
mp-20449,CeInIr,-0.6849715761111107
mp-20450,YCrB4,-0.6523673848611106
mp-20451,LaInPt,-0.9826178527777776
mp-20452,Ba(MgPb)2,-0.3770770833333333
mp-20456,Co3Se4,-0.2885296927678565
mp-20458,PtPbF6,-2.1127154058925
mp-20459,TiPbO3,-2.73986644675
mp-20460,NiSeO3,-1.18894463821875
mp-20461,BaPbO3,-2.1179846597500003
mp-20463,CaPbF6,-3.0548565677675006
mp-20465,As2Pd,-0.3244969991666663
mp-20466,Sn7Ir5,-0.2770880891666666
mp-20469,YbIn3,-0.3404863691666668
mp-20471,U4Si6Tc7,-0.589760558235293
mp-20474,MnCu2GeS4,-0.7318205552693966
mp-20478,LuTiSi,-0.6719171616666652
mp-20479,SrIn4Ni,-0.2967370902777778