material_id,pretty_formula,formation_energy_per_atom
mp-1095427,HfCoP,-1.1303417286904758
mp-1095431,YbGaNi,-0.5563575188888888
mp-1095433,TmGa4Ni,-0.5180388855555554
mp-1095437,LuSeO3F,-2.8746139745472914
mp-1095440,CdS2,-0.7719520437499998
mp-1095442,HfVP,-1.0744524928571433
mp-1095443,ScFe2,-0.2572190149999993
mp-1095449,HfGeMo,-0.5480298100000004
mp-1095457,Nd2In8Co,-0.3307180540909094
mp-1095459,CeNi4B,-0.4529409438888893
mp-1095464,YAlPd,-0.8848830494444447
mp-1095465,YGeRh,-0.994316710277778
mp-1095467,Tm2Si2O7,-3.7247175223106073
mp-1095468,Dy3Sc2S7,-2.4002326084895844
mp-1095472,ZrGeIr,-0.893464810833334
mp-1095478,YAlPt,-1.1507222786111104
mp-1095479,GdS2,-2.1787795845833338
mp-1095482,YbOs2,-0.0886402763888879
mp-1095484,PrAl4Ni,-0.540274009166667
mp-1095485,BaGe(PO4)2,-2.810987363928571
mp-1095487,LuTc2,-0.2774767533333329
mp-1095488,UB4Os,-0.4910383780555563
mp-1095491,YCoSn,-0.5000089294444455
mp-1095496,ErGa4Ni,-0.5268444166666661
mp-1095498,Ba2Ni5Ge4,-0.4519740172727266
mp-1095499,CsAuCl4,-1.3465558468285057
mp-10955,Sn(HgSe2)2,-0.2654803056249995
mp-1095501,TmSiPt,-1.210617888611111
mp-1095502,TaCoGe,-0.4243669966666677
mp-1095505,Ti3GeC2,-0.8418590308333336
mp-1095507,SbIrSe,-0.4622311899479167
mp-1095508,Er5S7,-2.444427981822917
mp-1095513,SrCdAu,-0.6095122372222223
mp-1095520,KPd2O3,-1.147488468624999
mp-1095522,YZnPd,-0.7554558761111109
mp-1095527,GdGeRh,-0.9564415341666668
mp-1095528,Ho(Ge2Rh3)2,-0.7540555245454538
mp-1095529,LuH2ClO2,-2.4852643521666664
mp-1095532,VSiNi,-0.5877622666666665
mp-1095535,YGa4Ni,-0.5442828705555556
mp-1095536,VNiGe,-0.3358277933333333
mp-1095537,Er3(CuSn)4,-0.4930425054545453
mp-1095544,ScGaPd,-0.8300654525000001
mp-1095545,ZrTc2,-0.3148868341666653
mp-1095550,HoAsPt,-1.1954296116666658
mp-1095552,La(Ge2Rh3)2,-0.7684501913636358
mp-1095553,TaCoP,-0.8236720761904776
mp-1095559,YbNi3,-0.3619035683333334
mp-1095560,Zr3Al3Ni3H2,-0.6430238952036366
mp-1095561,NdNi3,-0.3100951283333337
mp-1095563,ScSiIr,-1.153934061666667
mp-1095568,CeMgSn,-0.4659740711111109
mp-1095572,TbAlAu,-0.7905179283333332
mp-1095573,NbCoSi,-0.731595069166668
mp-1095575,Y3(CuSn)4,-0.5299923563636362
mp-1095577,Tm4B3C4,-0.51118510439394
mp-1095578,Ga5Ni,-0.1714683091666664
mp-1095579,TmAlPt,-1.1763396702777775
mp-1095583,DyGaPt,-1.100971982499999
mp-1095584,PRuS,-0.7953105288988098
mp-1095585,Er2Ga8Fe,-0.435332174545454
mp-1095586,LiGaH4,-0.192298510191111
mp-1095587,LaGaPt,-1.0417454583333334
mp-1095591,Tm3(CuSn)4,-0.478573926363636
mp-1095595,SbSI,-0.5308087052083336
mp-1095599,HoCoGe,-0.6723561441666668
mp-10956,LaAsRh,-1.1639878033333322
mp-1095601,YbCo3,-0.0398535470833335
mp-1095603,YAsSe,-1.437743132725695
mp-1095604,ErTc2,-0.2267499541666661
mp-1095605,GdAl4Ni,-0.5565730958333338
mp-1095607,YGePt,-1.1385375727777785
mp-1095610,ZrGePt,-0.9857661058333326
mp-1095614,ErAsS,-1.7558321010416666
mp-1095616,BaNdAgS3,-1.948336882118056
mp-1095624,Tb2Ga8Co,-0.4888339477272723
mp-1095625,TmAsPd,-1.1823330719444438
mp-1095626,La2P2AuO,-1.8827862747321429
mp-1095627,ThVB4,-0.6706716055555546
mp-1095628,YSnPd,-0.9456773186111108
mp-1095634,TeAsRu,-0.4193779858333333
mp-1095637,PrP2,-1.019964320714286
mp-1095641,Tb5S7,-2.458230011822917
mp-1095653,Yb3(CuGe)4,-0.500816300909091
mp-1095656,LuAsSe,-1.3559150582812496
mp-1095658,Tb2Au,-0.622155905833333
mp-1095666,TbOs2,-0.2840940974999988
mp-1095667,TmAlPd,-0.8981919919444442
mp-1095668,TaFeAs,-0.3901208191666671
mp-1095669,HfTc2,-0.3620899741666671
mp-1095672,Ta2V3Si,-0.3379447449999991
mp-1095675,CeAsS,-1.809132276041666
mp-1095680,PrGeRh,-0.8694616016666666
mp-1095683,NbIr,-0.5142817708333342
mp-1095684,SrInPd,-0.6540550230555553
mp-1095690,Tm2Au,-0.6630133755555558
mp-1095692,ErCoGe,-0.6771640158333341
mp-1096,CeS,-2.3775046290625
mp-10960,Tb2Ti2S2O5,-3.347320223863636
mp-10961,La5Si3,-0.6062762468749998
mp-10963,Ag2SnHgSe4,-0.2443929120052081
mp-10964,CeB2Ir2C,-0.6158714102777765
mp-10965,DyAgSb2,-0.6106952058333337
mp-10966,Tb2Cu(GeO3)4,-2.5293906723684207
mp-10967,CdCu2GeSe4,-0.3422298736718749
mp-1096784,Ni(AsO2)2,-1.4950440789285722
mp-1096802,Ag2GeSe3,-0.1924483864496527
mp-1096810,Al2ZnS4,-1.3882314353571437
mp-1096812,Ag2SnSe3,-0.243349493532986
mp-1096815,Ba3Ta4NbO15,-3.398978831684781
mp-1096838,Ba(AgO)2,-1.4090840268333331
mp-1096840,Ba,7.114499999993917e-05
mp-1096858,Ba3TaNb4O15,-3.2644722110326083
mp-1096861,Cd,0.0014144099999999
mp-1096867,Cd(CuSe)2,-0.3254541529375004
mp-1096868,Ba7Sn3S13,-1.848136796983696
mp-1096880,CaZnPb,-0.3791872633333337
mp-10969,CdCN2,-0.0971490336899991
mp-1096905,Ce4Al2O9,-3.671025890249999
mp-1096925,CsBaI3,-1.6975612820862067
mp-1096926,Cs2InAgCl6,-1.7317812558755403
mp-1096927,CsCaCl3,-2.6316967805422067
mp-1096933,CsAgO2,-1.019383420941092
mp-1096946,Cs2VHO4,-2.101691136810259
mp-1096971,GaAgO2,-1.5924918414583331
mp-1096977,H2,4.440892098500626e-16
mp-1096979,NaVZnO4,-2.2141851142261904
mp-1097,TaB,-0.8128710091666651
mp-10970,LiErO2,-3.3293927210416667
mp-1097014,KSnBr3,-1.1862719451
mp-1097015,KSnI3,-0.9043504595999998
mp-1097025,GaFe2BO5,-2.23982496050926
mp-1097033,K3V2P2O8F3,-2.792738880539603
mp-1097038,LiAl2H6BrO6,-2.082030716617916
mp-1097041,IrO3,-0.9936701596874996
mp-1097065,Li2HfN2,-1.3529626376186663
mp-1097067,CsReN2,-0.3903217587977581
mp-10971,LiErO2,-3.326150639791667
mp-10973,K2Ga3CuSe6,-0.8055981789635419
mp-1097859,Mn3Ge5,-0.0666527183081902
mp-1097867,LiMn2O4,-2.080796572318621
mp-1097910,NaMn8O16,-1.891356771796856
mp-1097916,CsCaCl3,-2.631980586542207
mp-1098,Yb4As3,-1.164721883809524
mp-10983,ErVB4,-0.7290966838888894
mp-10985,RbCu3S2,-0.6690180972916675
mp-1099,NiGe,-0.3078886262500004
mp-1099073,Ti15NbO32,-3.4721770964583327
mp-10991,YCuAs2,-0.8220568545833329
mp-10992,DyCuAs2,-0.8198791312500004
mp-1099253,Mg3NiO4,-2.567346203125
mp-10993,ErCuAs2,-0.8011212074999996
mp-10994,TmCuAs2,-0.7893610583333333
mp-10996,Yb(MgSb)2,-0.7126052166666668
mp-1099685,BaSr7(FeO3)8,-2.3146270626666663
mp-1099778,BaSr7Ti8O24,-3.549932190166667
mp-10998,Yb2Ge2Ir,-0.7698594766666667
mp-10999,LuGeIr,-0.9599452783333328
mp-1099904,Ba2Mn2O5,-2.465791069164484
mp-11,As,0.0
mp-1100405,ScTeRh,-1.0862101783333329
mp-1100408,TaSnRh,-0.4576954866666654
mp-1100415,ZrSbRh,-1.0013993716666658
mp-1100430,LiZnSb,-0.3596176322222225
mp-11006,BaPS3,-1.5713376390892857
mp-11007,CaPSe3,-0.8871273881205355
mp-1100766,Ni3Pt,-0.0692090475000002
mp-1100768,TbCdHg2,-0.3799704825000001
mp-1100770,ThInRh2,-0.7001657949999993
mp-1100780,ZrZnPd2,-0.6456777362500006
mp-1100781,ZrZnNi2,-0.3929918187500005
mp-1100782,YbMg2,-0.0867532977777777
mp-1100786,Ni11As8,-0.3079019989473691
mp-1100787,YbMg149,-0.0293275213555553
mp-11008,BaPSe3,-1.0112875221205355
mp-1100802,Zr8MnCu2(PO4)12,-3.059127768640453
mp-1100806,Zr8Sc2O19,-3.912005920474136
mp-1100896,Yb3GdSb3,-1.0737579485714288
mp-1100961,U5P3Se2,-0.9967816160401796
mp-1101,TmAs,-1.4978879166666663
mp-11010,KNdTe4,-0.9547392713333333
mp-1101036,Tl9SbTe6,-0.2849291804374999
mp-1101056,GdMgIn,-0.3996655377777777
mp-1101079,TmCoGe,-0.6887154344444445
mp-1101090,GdAlNi,-0.5814407177777778
mp-1101093,CsZn4P3,-0.3047591142056647
mp-1101094,Cs2CeCl6,-2.44363234338023
mp-1101099,Ti2S3,-1.8032755908750004
mp-11011,RbNdTe4,-0.9587736629166668
mp-1101135,Ti2(InBr3)3,-0.9841958928571428
mp-1101139,Th2CuTe6,-0.8732702144444452
mp-1101151,NaHoO2,-3.178784271875
mp-1101160,Zr3N2O3,-2.9166300279387505
mp-1101165,YbBiO3,-2.3856551130833323
mp-1101197,VPHO5,-2.3928086007426783
mp-11012,Sr(BS2)2,-1.318239718452381
mp-1101257,Tm2Pt2O7,-2.5011064191287886
mp-1101258,TiS2,-1.7129438898611116
mp-1101266,Tm2TeO2,-3.195922482833334
mp-1101301,TeO3,-1.3531481121875002
mp-1101302,Ti3MnSn2(PO4)6,-2.8137384922789925
mp-1101314,Tb3TaO7,-3.865276120795456
mp-1101327,SrTaNO2,-2.760910210309333
mp-1101340,SrCaI4,-1.678289033611111
mp-1101397,SmHO2,-2.976847219863333
mp-11014,K2TeOF4,-2.6244458021262496
mp-1101401,RbPrO2,-2.87901652125
mp-1101431,RbLiMn3O4,-1.8826548645569103
mp-1101441,Rb4TiO4,-2.326420870555556
mp-1101448,NbVO4,-2.821367318333333
mp-1101457,Ni(BiO3)2,-1.2496508261111114
mp-1101461,Rb2ZrO3,-2.757664220208333
mp-1101462,NbTlO3,-2.4641383875
mp-1101476,Pr(CuO2)2,-2.01790553
mp-1101513,LiV4P7O24,-2.683371200601852
mp-1101518,Sn(PO3)3,-2.4856419801510987
mp-1101535,Li2MnP2O7,-2.674598584570114
mp-1101587,Li7V8(PO4)12,-2.699181109326984
mp-1101589,Mo2P2O11,-2.31910897672619
mp-1101601,LiV2(PO4)3,-2.6642046241600528
mp-1101653,NaDyO2,-3.157824311875
mp-1101667,NaMnPCO7,-2.189371767085146
mp-1101682,Na5SbO5,-1.86131393875
mp-1101723,Na6Te2H28RuO30,-1.4336991898337312
mp-1101724,Nb10Pb14O39,-2.421493487599207
mp-1101752,PrAsS,-1.779883422708334
mp-1101753,ZrPRh,-1.2867167920238105
mp-1101754,Ti4H7,-0.5562832454854543
mp-1101755,GePtS,-0.8068000535416667
mp-1101762,PrAl2Ag,-0.4194579637499996
mp-1101764,NdAsS,-1.7853239485416663
mp-1101765,BiRhSe,-0.4094356832812498
mp-1101768,La3(ZnPd)4,-0.7163536768181825
mp-1101769,ThReB4,-0.5565877505555553
mp-1101773,NdAlAu,-0.7393374433333335
mp-1101774,YSnIr,-0.8368997302777773
mp-1101777,Pr3(AgSn)4,-0.5661626643939396
mp-1101778,LaAlAu,-0.7351873541666668
mp-1101781,BaErCuSe3,-1.571242797838541
mp-1101783,Bi2Ir,-0.0294256733333331
mp-1101785,YCoGe,-0.6640968461111108
mp-1101786,Tm3(CuSn)4,-0.4773852718181818
mp-1101793,YSeO3F,-2.834052090102848
mp-1101801,BaYCuSe3,-1.5809377183940974
mp-1101803,NdGaPd,-0.8407824874999997
mp-1101808,CeSbIr,-0.89399116
mp-1101809,SrCdGe,-0.4846042430555553
mp-1101813,CaGaSn,-0.5075548508333334
mp-1101816,Lu2Au,-0.6761550749999999
mp-1101818,BaLaAgSe3,-1.6084837317274303
mp-1101824,PrGaPt,-1.0029041991666665
mp-1101826,Ir3S8,-0.8057203140909098
mp-1101828,TbAsS,-1.786729894375
mp-1101836,GdH2ClO2,-2.4478886421666672
mp-1101842,LuNi4B,-0.5164829638888891
mp-1101849,YGaPd,-0.8987660602777782
mp-1101850,Ho3(CuSn)4,-0.5045122709090903
mp-1101855,TmGaNi,-0.6614862319444447
mp-1101862,NaBH4,-0.4231542446355553
mp-1101867,ZrCuSn,-0.3971869058333332
mp-1101870,TiFeP,-1.0639102345238076
mp-1101873,ErS2,-2.1367347979166667
mp-1101882,NdIr3,-0.5265526050000003
mp-1101884,CaNi5,-0.1097355458333328
mp-1101885,Na2PS3,-1.1770467579910715
mp-1101887,Y3(CuSi)4,-0.6414645018181812
mp-1101891,LaSbSe,-1.5047308549479166
mp-1101892,CeAs2,-0.9915098058333336
mp-1101894,FeAsSe,-0.3217030791145833
mp-1101897,GdAsS,-1.7911682168750005
mp-11019,GaCuO2,-1.6826668231250004
mp-1101908,Nd3Ni2Sn7,-0.5947611508333335
mp-1101909,VCl5,-1.4570049477166669
mp-1101912,BaSiPt,-0.9466716149999996
mp-1101917,SnBi4Te7,-0.2482772008333326
mp-1101919,LuSiPt,-1.2098013524999989
mp-1101942,LaSb2,-0.8760973966666666
mp-1101945,YbNi4B,-0.4435198633333333
mp-1101946,TbAsPd,-1.1965562799999994
mp-1101948,NbPRh,-0.885188983690476
mp-1101950,SbPtSe,-0.4267733049479171
mp-1101952,HfSiNi,-0.893250704166667
mp-1101953,HoOs2,-0.3282700633333325
mp-1101959,ZrGeRh,-0.942722366666666
mp-1101967,NbCoAs,-0.5202627808333347
mp-1101968,HoTc2,-0.2049472958333318
mp-1101970,TbRu2,-0.3065119358333336
mp-1101971,FePS,-0.7539444605654767
mp-1101973,YbAsPt,-1.0750345947222228
mp-1101978,PrAlAu,-0.7260866500000004
mp-1101981,SrGe(PO4)2,-2.802576353650793
mp-1101982,VCoP,-0.8361578353571429
mp-1101989,SrLiAs,-1.0253671961111113
mp-1101995,NbNiGe,-0.4971367141666671
mp-1101996,Ce2NCl3,-2.387868708693333
mp-1102,LuN,-2.06950642619
mp-11020,GaAgO2,-1.5926069289583331
mp-1102015,ThTlCuSe3,-1.0738952520052087
mp-1102018,HfP2,-0.9245863590476184
mp-1102023,HgPt2Se3,-0.3502611653385414
mp-1102026,BaGaGe,-0.545571376666666
mp-1102030,YTc2,-0.1768571861111105
mp-1102032,HfNiP,-1.0605075061904767
mp-1102033,ErAsSe,-1.4084368691145837
mp-1102035,SmRe2,-0.079709532777778
mp-1102040,CaSnPt,-0.9234003241666664
mp-1102041,TaNiP,-0.7521090170238102
mp-1102042,TiCuGe,-0.4253132133333324
mp-1102043,LaOs2,-0.0647480558333318
mp-1102047,LuCoSn,-0.4780429999999995
mp-1102049,TaBe3,-0.2385154370833326
mp-1102052,DyAsS,-1.7782070093749998
mp-1102053,CeGaPd,-0.7892503083333331
mp-1102055,LaAs2,-1.058794991666667
mp-1102065,HoAl3,-0.4221709683333336
mp-1102068,DyAsPd,-1.1959128383333326
mp-1102069,LaNiP,-1.1679430611904766
mp-1102073,SrCdPt,-0.6831631580555554
mp-1102075,TbH2ClO2,-2.478178677166666
mp-1102077,NaAlF4,-3.63547067246
mp-1102079,TmAsS,-1.7424079154861107
mp-1102080,ScSiPd,-0.9823131199999994
mp-1102084,DyTc2,-0.1821802549999998
mp-1102092,NaFe(SO4)2,-2.1144927998958334
mp-1102098,Nd2Au,-0.5522920725000002
mp-11021,GaAuO2,-1.5140064868749992
mp-1102101,ScCoSn,-0.4853732675000006
mp-1102104,Ho2Pt,-0.9572156433333336
mp-1102110,TmGePt,-1.1298521636111107
mp-1102112,V3Ag2TeS6,-1.0468359604513886
mp-1102117,YbAlPt,-1.0594276105555558
mp-1102129,Na2YbCdSb2,-0.6027282711111109
mp-1102133,Tm2Pt,-0.9923536880555552
mp-1102138,TiCoP,-1.1465875936904757
mp-1102139,NdSb2,-0.7980971758333334
mp-1102140,NdSiIr,-0.9524396216666666
mp-1102143,ErRe2,-0.2719925799999991
mp-1102146,CsDyZnSe3,-1.4129668024937143
mp-1102152,DyNiP,-1.2182910703571437
mp-1102155,ErAlAu,-0.7938830233333333
mp-1102172,Ce2In8Pd,-0.4173274209090911
mp-1102174,In2AsPt8,-0.3426653500000004
mp-1102179,TmNiSn,-0.6692535744444447
mp-1102184,ScGaPt,-1.0515064816666662
mp-1102191,DyAlAu,-0.7946540941666669
mp-1102195,TiSiPt,-1.008110959166667
mp-1102196,ErGaIr,-0.8991144658333342
mp-11022,ScAgO2,-2.634393158958334
mp-1102202,PrSb2,-0.8065307349999996
mp-1102207,ErGaNi,-0.6539638108333327
mp-1102210,DyRe2,-0.2225594908333323
mp-1102212,SmAlPd,-0.8393438836111109
mp-1102214,BaCaPb,-0.5931327158333334
mp-1102216,USiRu,-0.5370939149999998
mp-1102217,NdRu2,-0.1561238716666662
mp-1102228,YbGaPd,-0.8564281005555561
mp-1102233,TbTc2,-0.1588336049999993
mp-1102246,LaSeCl,-2.3866984935345834
mp-1102248,TmAlAu,-0.7939029161111115
mp-1102249,TbRe2,-0.1957612258333334
mp-1102254,Cs2GeSe3,-0.9013019163155528
mp-1102268,YSiIr,-1.0680519469444445
mp-1102278,Tm2Ga8Co,-0.4716632528787886
mp-1102285,AlPS4,-1.0274809543452377
mp-1102297,BaGdCuS3,-2.039111141562499
mp-1102302,CeOs2,-0.2477443549999994
mp-1102307,Zr2V3Ru,-0.2581973775000001
mp-1102309,Yb2Ga,-0.3504435344444442
mp-1102310,HfCoGe,-0.673709730833334
mp-1102313,YbSbIr,-0.7421641713888883
mp-1102314,HfFeSi,-0.7715427341666677
mp-1102319,Lu2Pt,-1.0169184108333331
mp-1102327,LuGaPt,-1.101970862499999
mp-1102328,HoRe2,-0.2468820416666671
mp-1102348,NbRh,-0.4079895674999996
mp-1102354,ThTc2,-0.1404083766666666
mp-1102373,YGeIr,-0.9399222027777772
mp-1102381,Dy2Ga8Co,-0.486941375
mp-1102382,CuAsSe,-0.1293926757812501
mp-1102394,Nb5B6,-0.7659093781818185
mp-1102396,Ba2In,-0.3011032141666667
mp-1102399,Fe2P2O7,-2.4695838587175327
mp-1102408,PrAs2,-0.986668739166666
mp-1102413,GdGeIr,-0.901342565833333
mp-1102417,CeGaRh,-0.8192300616666657
mp-1102423,CeAlAu,-0.66146174
mp-1102430,SbTeIr,-0.4153839524999997
mp-1102438,SmRu2,-0.2205153152777784
mp-1102445,PrNi3,-0.2875130587499998
mp-1102449,SmAlAu,-0.7639024719444443
mp-1102452,ZrFeSi,-0.7563515108333334
mp-1102455,DyNiGe,-0.7990836650000013
mp-1102457,ErAlPt,-1.1689033591666664
mp-1102458,YGaRh,-0.8987658336111105
mp-1102464,SmGaPt,-1.0581203877777778
mp-1102475,Ce2NiGe3,-0.7187393266666664
mp-1102476,TbAsSe,-1.44513961578125
mp-1102478,ErAsPt,-1.184063141666666
mp-1102484,ThCoH4,-0.4850209074133336
mp-1102486,SmPO4,-3.4798433111507934
mp-1102487,Sc(P2Ru3)2,-0.727331524480519
mp-1102498,Ce2PPt8,-0.8698030353246754
mp-11025,ZnP2,-0.2485730661309529
mp-1102504,CoPW,-0.4439228053571433
mp-1102508,DyOs2,-0.3084827216666663
mp-1102510,Ho5S7,-2.450236315156251
mp-1102518,Tm3(CuSi)4,-0.637297286363636
mp-1102520,ZrSiMo,-0.7244398000000002
mp-1102521,PrGaPd,-0.8214662366666664
mp-1102523,Zn2PN3,-0.5652833576185708
mp-1102524,In2Pd8Se,-0.412487401122159
mp-1102531,PRhSe,-0.6318758028050601
mp-1102532,NbGeRh,-0.6188462091666658
mp-1102534,POsS,-0.6805133463988101
mp-1102536,AlCuBr4,-0.8575404741666667
mp-1102537,NbVP,-0.8851420136904752
mp-1102541,YSi2Rh3,-1.074949776388889
mp-1102545,HfTl2Se3,-0.8896024503385416
mp-1102558,TmNiP,-1.2190030339682547
mp-1102565,ZrCoSi,-0.8587450616666672
mp-1102576,PrIn4Ni,-0.3625310808333335
mp-1102578,Nd3(AgSn)4,-0.5595955375757579
mp-1102601,SmGaPd,-0.8643031552777778
mp-1102603,YGaNi,-0.6416042861111109
mp-1102609,BaSiPd,-0.7286378416666661
mp-1102613,La3(ZnPt)4,-0.9011839459090912
mp-1102631,CaAlPt,-0.9709518683333336
mp-1102657,Y2Pt,-0.9270531205555556
mp-1102662,CaMgPd,-0.6249450502777781
mp-1102669,ErGaPt,-1.109960245
mp-1102687,ZrNiGe,-0.788360306666668
mp-1102688,PrSbSe,-1.3840803432812496
mp-1102691,LuAlPt,-1.18272188
mp-1102692,YbIn4Ni,-0.3169979561111109
mp-11027,Cs3Hg20,-0.1473579729910044
mp-1102700,TmGeIr,-0.9577147852777786
mp-1102702,HfNiGe,-0.7409335108333343
mp-1102705,SrGaGe,-0.5418649955555553
mp-1102717,BaWO4,-2.721948843333333
mp-1102728,Dy2Al,-0.2869620916666668
mp-1102731,YbCd2,-0.3326110230555557
mp-1102732,HfSiW,-0.627434944166667
mp-1102733,HoAsS,-1.7666969427083323
mp-1102737,HoAlPd,-0.8887199208333332
mp-1102743,ZnS2,-0.8097704670833336
mp-1102757,HoGaPt,-1.1036598999999991
mp-1102758,LuGaNi,-0.6645015675000003
mp-1102760,DyGaNi,-0.606113226666667
mp-1102762,SmAsS,-1.790265817152778
mp-1102776,Yb2Pt,-0.9496734711111112
mp-1102792,Gd(Ge2Rh3)2,-0.7595159863636357
mp-1102795,ErZnPt,-0.989097895
mp-11028,K3Hg11,-0.2030311349285714
mp-1102807,PrNiP,-1.126088418690476
mp-1102817,Pr(Ge2Rh3)2,-0.7516629531818172
mp-1102820,ErAlPd,-0.8941257099999996
mp-1102822,ThB4W,-0.5418035305555549
mp-1102830,ZrTl2S3,-1.3134288298958332
mp-1102840,YAlAu,-0.8118235402777779
mp-1102841,HfGeIr,-0.8421476441666655
mp-1102843,FeMoP,-0.5913927186904774
mp-1102847,Tm5S7,-2.4371515973784725
mp-1102848,LaIr3,-0.5445621454166663
mp-1102849,BaErAgSe3,-1.52972188422743
mp-1102854,YNiP,-1.22056063063492
mp-1102855,ScGeIr,-0.957098890000001
mp-1102857,SbTeRu,-0.3227581683333334
mp-1102863,DyCoGe,-0.6626762108333336
mp-1102866,YbSiPt,-1.0328356130555552
mp-1102869,ZrSiIr,-1.1231178066666665
mp-1102875,Er2Al,-0.2933746624999997
mp-1102879,ErSiPt,-1.2054170316666664
mp-1102890,TmTc2,-0.2483975494444431
mp-11029,Y(Al2Cu)4,-0.3114594325641026
mp-1102901,NdNiP,-1.147926266190477
mp-1102902,Pr2Ni5B4,-0.4547217066666669
mp-1102907,YbNiGe,-0.6751499147222226
mp-1102926,YGaCo,-0.4696704936111106
mp-1102933,UNiGe,-0.3114575974999998
mp-1102935,HoSiPt,-1.1988084408333333
mp-1102944,TbAlPt,-1.1426317483333328
mp-1102945,HfGeRh,-0.8901567266666675
mp-1102948,GdNi4B,-0.4779141763888894
mp-1102952,DyAsSe,-1.4349901124479167
mp-1102959,YAsS,-1.7746831171527784
mp-1102961,AlCdCl4,-1.7078342613399995
mp-1102972,Er2Au,-0.6514435908333329
mp-1102976,ZrPOs,-0.9268669578571432
mp-1102977,GaAsO4,-1.946760680833333
mp-1102980,NbFeP,-0.8767898928571434
mp-1102986,CeSb2,-0.768027308333334
mp-1102992,HoAlAu,-0.7953728099999999
mp-1103010,Sm(Ge2Rh3)2,-0.7588754130303024
mp-1103021,PrPb2,-0.4726746733333329
mp-1103022,TmGaPd,-0.9011208527777772
mp-1103026,NdSi2Rh3,-1.0561094374999993
mp-1103028,Ba2Pd,-0.365291793333333
mp-1103032,HoAlPt,-1.161145840833333
mp-1103033,SrMgPt,-0.7585608024999999
mp-1103034,ScCoSi,-0.8436983966666673
mp-1103035,ErGaRh,-0.9182086849999992
mp-1103036,Y2Ga8Co,-0.4845658446969697
mp-1103038,SiIr2,-0.4891670099999992
mp-1103044,Sn2Rh,-0.4290173400000003
mp-1103046,CaCdPt,-0.7271834675000003
mp-1103049,TmGaPt,-1.1145399152777775
mp-1103053,Er3(CuSn)4,-0.4927684599999999
mp-1103088,DyAl3,-0.4277639016666666
mp-1103091,GaHgCl4,-1.340899235506667
mp-1103095,TbGaCo,-0.4662784374999997
mp-11031,CeAl7Au3,-0.4876146918181822
mp-1103105,HoGePt,-1.1333262199999996
mp-1103109,LaAlPt,-1.0552967099999997
mp-1103115,PrNiGe,-0.6600595933333331
mp-1103125,Dy5S7,-2.4553279926562497
mp-1103139,Ca2Hg,-0.4054833233333331
mp-1103143,SmAsPt,-1.223771127777778
mp-1103146,TmBPt2,-1.013048098749999
mp-1103148,ZrCoGe,-0.7074689533333339
mp-1103150,MoPRh,-0.5995571603571422
mp-1103152,CsBrF4,-1.986671460448506
mp-1103153,CeSbSe,-1.349682487447917
mp-1103155,LaSiRh,-0.9786623166666668
mp-1103158,TiGeIr,-0.7207726741666663
mp-1103160,ScCoP,-1.1438093820238109
mp-1103162,TiSiPd,-0.8507508491666668
mp-1103169,NaAgO,-1.054677335694444
mp-1103172,CaCdPd,-0.6093764891666668