material_id,pretty_formula,formation_energy_per_atom
mp-1227408,Ca(LuTe2)2,-1.4226452664285714
mp-1227414,Bi(SbTe2)3,-0.1480373344999996
mp-1227416,Ca2(ZnAu3)3,-0.451271736785714
mp-1227420,BaSrMn2O6,-2.494084013539701
mp-1227426,BiTeRh,-0.3770620033333329
mp-1227429,Ca10Si6F,-0.8158141844817647
mp-1227432,Ce6MnSb15,-0.6266501565752353
mp-1227433,BaSrY(CuO2)4,-2.069567648666665
mp-1227436,Ca2Ga7Au,-0.4441063679999999
mp-1227438,Bi4(TeSe)3,-0.3202614657031247
mp-1227439,Bi4(TeSe)3,-0.3169964027031248
mp-1227440,Bi2Sb2(TeSe)3,-0.2643002807031251
mp-1227442,Be2BH3O5,-2.3794128909493937
mp-1227444,BiPbBrO2,-1.4883826325
mp-1227445,BaSrNdTlCu2O7,-2.209114775032053
mp-1227448,Ca(B2Pt3)2,-0.3924786534848488
mp-1227451,Ca2CoSi4NiO12,-2.95302188475
mp-1227454,Ca6P19Rh30,-0.8938759962337661
mp-1227456,Ca10Ge6F,-0.952372886834706
mp-1227462,BiTeO4,-1.6202314462500005
mp-1227465,Ca4Zn51,-0.1541471648181817
mp-1227482,BaSrMgSi2O7,-3.391683265729167
mp-1227486,BiSbS3,-0.6922205818750008
mp-1227487,Ca2MgReO6,-2.881212234583333
mp-1227488,Ca(BiAu3)2,-0.2964939472222217
mp-1227497,Bi2Pd3PtO8,-1.162437062857142
mp-1227499,Ca2Al2SiO7,-3.474245396979167
mp-12275,SrZnSb2,-0.5645036472916667
mp-1227507,Ca2AlH10BrO8,-1.9665270443727272
mp-1227520,Bi3Sb(WO6)2,-1.950618447777778
mp-1227523,CeU2S5,-2.038929264140624
mp-1227524,BaTi(IO3)6,-1.3632958212499997
mp-1227525,CaLa2(FeO3)3,-2.74257418875
mp-1227542,Ce7Ti4(Se2O)6,-2.3093087520905167
mp-1227543,CaNd2Mn3O9,-2.837700067539701
mp-1227545,BaSrMn2Al9PbO20,-3.108602445085207
mp-1227558,Ca4GaSi3,-0.5317011418749997
mp-1227565,BiSb3F20,-2.4936475241166667
mp-1227567,Bi4PbS7,-0.7593533401562501
mp-1227574,Ca4Cd3Au5,-0.6496652108333336
mp-1227577,Ce4Ni4Bi3Sb5,-0.6657488871875001
mp-1227579,Ca20(CdGa3)3,-0.3672021137499994
mp-1227585,CaTi8Mn(PO4)12,-3.054229134549604
mp-1227587,CeThUS5,-2.221663047578125
mp-1227589,Ca10P6O25,-3.328643989821429
mp-1227593,Ca2Al2Si(HO4)2,-3.070610550149333
mp-1227595,Ca2Bi3Au10,-0.3449042360000002
mp-1227603,Ca5As3HO13,-2.6842200136304544
mp-1227604,BaSrV4(NiO4)4,-2.2164867750641024
mp-1227612,La9In5Se21,-1.4883820291205356
mp-1227613,Ca4Ge3Au5,-0.7247524383333328
mp-1227614,Ca4Mg3Si8NiO24,-3.2407752715
mp-1227619,Ca4Al6SO16,-3.32261540863426
mp-1227620,Ca3YTi4O12,-3.605146309166666
mp-1227621,Ca4Bi6O13,-2.249221498097826
mp-1227625,Ca3Tl4O9,-1.9430766560156243
mp-1227626,Ca2TbMn3O9,-2.7092662383730337
mp-1227627,Ca10V3P3(O12F)2,-3.276072322811768
mp-1227630,Ca2TlCd,-0.4137981774999997
mp-1227631,Ca3CdO4,-2.8451168475
mp-1227646,Be2BH3O5,-2.375807347313029
mp-1227648,Ca(InCu)6,-0.1037851996153848
mp-1227650,BaSr4,-0.006024181333333
mp-1227660,Ca2ZnGa3,-0.4853223724999995
mp-1227661,Ca2Zn3Ga,-0.3726866925000003
mp-1227665,BaSrGa4,-0.4811283661111112
mp-1227669,Ca4Al6CrO16,-3.238419265555556
mp-1227671,Ca4Al6MoO16,-3.2934092696296298
mp-1227673,Ca4AlZn43,-0.1645821661458336
mp-1227674,Bi3Sb5Pb4O21,-1.8116410073106053
mp-1227680,CdHg6(Sb2I3)2,-0.2351687816176469
mp-1227685,Ca2Zn3Ag,-0.3090982097222223
mp-1227688,BaSr3Ti4O12,-3.54281366075
mp-1227698,Ca2TlIn,-0.4667165024999997
mp-12277,CaAgP,-0.7627810045238093
mp-1227700,BaSr4Cl10,-2.890978526617777
mp-1227701,BaSrCaWO6,-3.028156162916666
mp-1227706,Ca2TiMnO6,-3.052271965811517
mp-1227708,Ca16Sb11,-1.0294965220370371
mp-1227709,BiP3(PbO4)3,-2.3701797276691723
mp-1227710,BaSr4Ti5O15,-3.543910388616666
mp-1227711,Ca4CoSi8(NiO8)3,-2.9369937908749995
mp-1227713,Ca2Tl2O5,-2.10151645625
mp-1227716,Ca3Ga2(Ge2O7)2,-2.580436426630435
mp-1227718,Ca2TiRuO6,-2.8989123772500003
mp-1227721,BaSr4(FeO2)5,-2.383898379708333
mp-1227722,BaSr4Cl10,-2.8914174006177777
mp-1227725,BaSr,0.0026042216666666
mp-1227727,BaSr4(FeO3)5,-2.3096994654166667
mp-1227729,BaSiAu,-0.5797358616666664
mp-1227735,BaSr(FeO3)2,-2.286301522416666
mp-1227737,Ca2ZrTi(GeO5)2,-3.101342520156249
mp-1227739,BaSr4(FeO3)5,-2.3086842014166664
mp-1227747,Ca10P6SO24,-3.295780754013502
mp-1227757,Ca3BiAu14,-0.4116743102777778
mp-1227761,Ca3SmMn4O12,-2.6534510567897
mp-1227786,Ca2TiSi2SnO10,-3.216041581406249
mp-1227788,Ca2(TlPb)3,-0.2927662724999997
mp-1227791,Ca3Cd5(P2O7)4,-2.686323053603897
mp-1227808,Ca3Er3Ge2BO13,-3.331274368162879
mp-1227816,Ca3Mg2Ni13,-0.1698457639814816
mp-1227818,BaSr11Al4(O4F)4,-3.4309683132803697
mp-1227825,BaU2V2O12,-3.1354207291176466
mp-1227831,BaSr3(CoO3)4,-2.0885895802500003
mp-1227841,BaLaB12,-0.4895734732142855
mp-1227843,BaSr(PbO3)2,-2.1346536159166667
mp-1227847,CsZr18(PI14)3,-1.0421046398225835
mp-1227859,Ca3Cu2Ni(PO4)4,-2.6504334213186813
mp-1227878,BaPb(SO4)2,-2.4227015017708333
mp-1227881,BaMgIn3,-0.3510851186666667
mp-1227883,BaNaPO4,-3.017667661938776
mp-1227885,Ca2MgFe(CO3)4,-2.439054427166667
mp-1227887,Ca3MgNi14,-0.1449598087962963
mp-1227892,BaNaVS4,-1.6845012675000004
mp-1227912,Ca11(Cd9Au2)2,-0.4399365662121214
mp-1227922,ErCd6,-0.1690495301190475
mp-1227928,BaSrPb6,-0.3471578999999997
mp-1227940,BaGaSi,-0.4528205216666663
mp-1227942,BaGaGe,-0.5439361466666662
mp-1227943,CsTa4P3S19,-1.156402574371122
mp-1227952,CeGa2Ni3,-0.5125975425000004
mp-1227958,BaGeAu3,-0.5130653039999992
mp-1227962,BaCd3Ga,-0.3066676839999999
mp-1227963,Ba3TmIrRuO9,-2.613012593638889
mp-1227971,BaCdSn,-0.5394580883333336
mp-1227973,Ca2ZnSb2,-0.7933138610000002
mp-1227976,Ba6Br2N3Cl,-1.3653595517000003
mp-1227977,Ba6Br2N3Cl,-1.3694282942000005
mp-1227983,BaGa2GeS6,-1.3228427338749995
mp-1227985,Ba6Br2N3Cl,-1.3654727950333332
mp-1227988,BaBe2(PO4)2,-3.139730715934066
mp-1227993,BaGa2SiS6,-1.427692472375
mp-1227994,BaAlSi5N7O2,-1.81788691026
mp-1227995,BaIn3Pt,-0.5343658619999999
mp-1227997,AlSi3W2,-0.3009857241666663
mp-1227999,Cs3Re6(SCl)7,-1.4009279642820909
mp-1228000,Ca2Mn7Si10H12O35,-2.5326096738105486
mp-1228007,BaAl2O4,-3.452649825714285
mp-1228013,Co8Cu7(MoO4)12,-1.710471238
mp-1228015,AlSiMo,-0.4162807327777769
mp-1228020,Ba3YIrRuO9,-2.5831431599722228
mp-1228026,CsRe2OsSe4Cl3,-0.9553398274623668
mp-1228028,Ba3SrAg4,-0.2860558050000001
mp-1228030,Ba4Bi2O,-1.5216751701785718
mp-1228031,Ba8Sr(BN2)6,-1.1932015083417278
mp-1228041,AlSiNi6,-0.4449249818750003
mp-1228043,AlSiNi2,-0.5779002149999997
mp-1228044,Ba4ZrNb9O18,-2.9513546907031234
mp-1228054,Ba3SrMg2(TeO6)2,-2.6886208084166654
mp-1228056,Ba3NaB24,-0.3133328983928568
mp-1228057,BaNa4Ti2Si10(BO15)2,-3.1698797496768707
mp-1228058,Ba3MgTaNbO9,-3.351717470305556
mp-1228059,Ba3SrMg2(Si2O7)2,-3.3824960625347225
mp-1228060,Ba3SmB24,-0.4243090433333328
mp-1228061,Ba4Cu2IBrO4,-2.222968185833333
mp-1228062,CaCe(FeSb3)8,-0.182833572647058
mp-1228063,Ba3TiAl10O20,-3.4598716363235305
mp-1228067,Ba2ZrSnO6,-3.1502219157499995
mp-1228070,Bi5(PO5)3,-2.2635241929114898
mp-1228081,BaHgPb,-0.5003935716666664
mp-1228084,Ba4Sc2Cu2O9,-2.817365716544118
mp-1228088,Ba4SrHf5O15,-3.793103443816666
mp-1228089,Ba3SrZn2(WO6)2,-2.654099962583332
mp-1228095,Ba3Mo2(NO3)2,-2.225182758635385
mp-1228096,K4Cu4Sn7,-0.2111663500777777
mp-1228099,BaAlF5,-4.057041474659523
mp-1228103,Ba6Na2Nb2V2O17,-3.021946305905173
mp-1228109,Ba8Li13GaSb12,-0.8288151204901962
mp-1228110,Ba3TiZnWO9,-2.9327170487500003
mp-1228113,Ba5P3O12F,-3.394969616995442
mp-1228114,Ba3SrYb2(ReO6)2,-2.98945804075
mp-1228115,Ba3SrCa2(WO6)2,-3.0255459780833336
mp-1228118,Ba3MgTiWO9,-3.1323652549722225
mp-1228119,BaPb3(NO3)8,-1.2929829271955555
mp-1228122,Ba6Bi2(TeO6)3,-2.389006571465517
mp-1228124,Ba6Ti5PtO18,-3.24405300775
mp-1228125,BaCdPb,-0.4575373950000001
mp-1228129,Ba4InSbO8,-2.689160623214285
mp-1228131,Ba4Nb2WO12,-3.108485870263159
mp-1228132,Ba6Nd2Y(MoO6)3,-3.052416215194445
mp-1228133,Ba3Lu2MoO9,-3.2908246420833325
mp-1228136,Ba3Pb(SO4)4,-2.6248393176041662
mp-1228137,BaCaLu2F10,-4.397308722635715
mp-1228141,Ba3CaTa2O9,-3.463819566416667
mp-1228145,Ba6Ca2Ta(RuO6)3,-2.7299728420833334
mp-1228148,BaInCuF7,-2.971657040833
mp-1228149,Ba3Sr9Al4(O4F)4,-3.4318148631877774
mp-1228156,Ba2(AlAg)5,-0.2795741447222226
mp-1228160,Ba3P4O13,-3.122377562026786
mp-1228163,CaMnZnAs2H3O10,-1.9502090804986207
mp-1228167,Ba4ScReWO12,-2.9999174028947366
mp-1228168,Ba3SmIrRuO9,-2.554273147305556
mp-1228172,BaBiNO5,-1.8715802673287487
mp-1228174,Ba7Ti2Nb4O21,-3.344128095772058
mp-1228177,AlTlSi3O8,-3.0927347369230764
mp-1228183,Ba4Re2NiO12,-2.595716399210525
mp-1228184,Ba4Nd2Cu6O13,-2.18969757905
mp-1228188,Ba4Tl13Hg3,-0.279050823
mp-1228193,Ba3Sr(MoO4)4,-2.716514816527777
mp-1228194,Al6CoCu3,-0.3016765265000004
mp-1228195,Ba7Nb4MoO20,-3.1575493682812503
mp-1228196,Ba3YbIrRuO9,-2.4880340865277777
mp-1228197,Ba3In2WO9,-2.6051165034166672
mp-1228199,Ba4Cr2MoWO12,-2.7269300107499994
mp-1228201,Ba4Sr2Lu3(BiO6)3,-2.873352305527777
mp-1228203,Ba4CaCu2CO9,-2.4563689256617645
mp-1228209,AlTlSiO4,-2.911176685
mp-1228211,Ba5Ga6,-0.4063028463636361
mp-1228214,Ba4TiNb9O18,-2.9261977841406246
mp-1228215,Cs3(Cr5Se8)4,-0.628590699614419
mp-1228216,Ba3PrIrRuO9,-2.5178760170833328
mp-1228217,Ba4Cu11(Te4S)2,-0.7080768102500002
mp-1228219,Ba3TbIrRuO9,-2.586064352083334
mp-1228220,Ba4La2SbRuO12,-2.9147388930000004
mp-1228225,Ba3Ta4TiO15,-3.4720470990760868
mp-1228226,Ba3Co3Te(PO7)2,-2.542771488897515
mp-1228228,Al7Cr(Bi2O9)2,-2.7776175830833334
mp-1228229,Ba4SiGeS8,-1.8919732610714293
mp-1228233,Ba3ZnIrRuO9,-2.17706836675
mp-1228234,Ba3SrEr2(MoO6)2,-3.104138873083332
mp-1228239,Ba4La2Cu6O13,-2.20640723825
mp-1228241,Ba3NdIrRuO9,-2.5314589240833327
mp-1228242,Ba3YRuPtO9,-2.512462157305555
mp-1228244,Ba3Er2MoO9,-3.2568943930833334
mp-1228246,Ba3LaIrRuO9,-2.544909072083333
mp-1228248,Ba4NdY(CuO2)8,-2.033102475444444
mp-1228250,Ba3Ho2MoO9,-3.244417959083332
mp-1228251,Ba8SrCa3(WO6)4,-3.013667255541667
mp-1228257,Ba2YCu3PbO7,-2.143039261577381
mp-1228258,Ba5Li2(TeO5)3,-2.4515012422833333
mp-1228260,Ba6Mn4Co2ClO16,-2.405275074335197
mp-1228263,Ba3MgIrRuO9,-2.375916551638889
mp-1228269,Ba4Bi(PbO4)3,-2.1589666872499995
mp-1228270,Ba4TiSi12(SnO12)3,-3.176193854732143
mp-1228272,Ba3UIn2O9,-2.9751274460833343
mp-1228277,Ba3CaBi2O9,-2.42863263175
mp-1228281,Ba3ZrTa4O15,-3.493496941684782
mp-1228285,Ba8Y4Cu(WO8)3,-3.0549480080833336
mp-1228287,Ba7Cd31,-0.2498963194736843
mp-1228288,Al4Ni15Ge,-0.4008243555
mp-1228296,Cs5Re6S8Cl7,-1.5247667664413522
mp-1228297,Ba3DyIrRuO9,-2.59245124275
mp-12283,Li5Tl2,-0.2365560861904761
mp-1228300,Ba3LuIrRuO9,-2.625381330416667
mp-1228302,Ba4Cu2Si21,-0.2003982846296287
mp-1228306,Ba6Ca2Ir3RuO18,-2.41311332875
mp-1228310,Ba2TbNbO6,-3.4573565997500006
mp-1228313,Ba4Si21Au2,-0.2403338712962958
mp-1228318,Ba3LiIrRuO9,-2.2421807455277776
mp-1228320,Cs19(W2N5)6,-0.6845585203621248
mp-1228321,Ba3ZrNb5O12,-3.0605640169047623
mp-1228324,Ba3(NaSb2)2,-0.8108750466666663
mp-1228326,BaPb2(SO4)3,-2.2921469921875004
mp-1228327,Ba3(Br2Cl)2,-2.474584722946667
mp-1228328,Ba4Sr(FeO3)5,-2.261138178616667
mp-1228329,Ba2PtAu,-0.7296368324999998
mp-1228330,Ba8Mn6Co2ClO22,-2.427630697806438
mp-1228332,Ba2TlSbO6,-2.29154864725
mp-1228338,Ba4Bi3PbO12,-2.21225643875
mp-1228342,Ba2ScO3F,-3.5993285492771427
mp-1228347,Ba6Nd2Y(CuO2)12,-2.030272836074074
mp-1228360,Ba2InCuO4,-2.233834368125
mp-1228361,Ba3BiIrRuO9,-2.1572196410833326
mp-1228362,Ba2SrTi3O9,-3.514246459861111
mp-1228367,Ba2IBrF2,-3.1360682078966664
mp-1228368,Ba6(BiSe2)13,-0.8223711537986111
mp-1228370,Ba2SrB18,-0.4209355588888882
mp-1228373,Ba3Cu17AgP6,-0.311107871657848
mp-1228374,Al5FeNi,-0.3818035042857143
mp-1228390,Ba3ErIrRuO9,-2.6051122337500003
mp-1228392,Ba2CePbO6,-2.88340405025
mp-1228393,Ba2InBiO6,-2.29312282175
mp-1228397,Ba3UIn2O9,-2.980760336416667
mp-1228398,Ba3HoIrRuO9,-2.59919593575
mp-1228399,Ba2SrV2O8,-3.0158853266666665
mp-1228402,Ba2NdTlCu2O7,-2.189416456057693
mp-1228403,Ba2Ga7Ag,-0.4100029183333333
mp-1228411,Ba5Li2U3O15,-3.3996076022833326
mp-1228413,Ba2La(CuO2)3,-2.2310422285416665
mp-1228429,Ba2Fe4AsP3,-0.7410189585714277
mp-1228430,Ba3Ta4TiO15,-3.469096331467392
mp-1228431,Ba2Cu3BrClO4,-1.7936542043872727
mp-1228433,Ba2Na(SnAs)6,-0.4669460683333331
mp-1228434,Ba2LaTlCu2O7,-2.2038660964423085
mp-1228435,Ba3Bi2PbO9,-2.204393710083333
mp-1228436,Al3GaN4,-1.3588727549399993
mp-1228446,Al3BC,-0.0983812196666669
mp-1228450,Ba4Bi(PbO4)3,-2.1603342012499995
mp-1228457,Ba3BiPb2O9,-2.16691183475
mp-1228458,Ba6Y2Ru3PtO18,-2.566303193305556
mp-1228464,Ba5As2(SO6)2,-2.710105831488096
mp-1228476,Ba3In2WO9,-2.6135835754166674
mp-1228478,Ba4Ti3PtO12,-3.105715620083333
mp-1228480,Ba8Si43Ni3,-0.2178108393518519
mp-1228489,Ba3Ta4Ti4O21,-3.502893858007812
mp-1228491,Al2S3,-1.4478000558749995
mp-1228498,Ba2Sr(PO4)2,-3.304417087985348
mp-1228500,Al4Ni15Sb,-0.3757640587499999
mp-1228503,Ba2PrNb(CuO4)2,-2.694638226428571
mp-1228506,Al4VNi15,-0.4088680605
mp-1228507,Ba2(CaAl3)3,-0.2902467389285711
mp-1228511,Ba2Ti4Cr2O13,-3.2582315872023795
mp-1228515,Ba8Sr3Ca(WO6)4,-2.981026699625
mp-1228521,Ba2La(FeO3)3,-2.4802580617499994
mp-1228525,Ba2CuAg3(SnS4)2,-1.0961415096875005
mp-1228528,Ba2NbP2O9F,-3.2456217469721897
mp-1228531,Ba4SrRe3ClO15,-2.8001708522365267
mp-1228534,Bi13Mo6(AsO14)3,-1.8724662716015628
mp-1228536,Ba2TiFeO6,-2.873835264083332
mp-1228540,Al2VNi9,-0.3975636866666671
mp-1228559,Al5Ni41B12,-0.3750765225862071
mp-1228560,Ba6Nd2Y(CuO2)12,-2.025210624518518
mp-1228562,Al3GeW2,-0.1011231172222224
mp-1228563,Al2Si2PbO8,-3.1084405553846155
mp-1228569,Ba6La2Ga4O15,-2.9491388882870364
mp-1228575,Ba2Ga11BiO20,-2.3848249625
mp-1228578,Ba2Ta15O32,-3.2199523838775503
mp-1228580,Ba2As6O11,-2.0747038101973683
mp-1228581,Ba4Na2W2O11,-2.7167960154605257
mp-1228584,Ba4MgTa10O30,-3.429674454240741
mp-1228585,Ba4Ta10CoO30,-3.356370020055556
mp-1228588,Ba2Ti3Nb4O18,-3.314766147314815
mp-1228593,Ba6Y(ReO6)3,-2.8958096552083328
mp-1228599,Al3BC3,-0.0930155016666668
mp-12286,Sr2Ta2O7,-3.5113686324621214
mp-1228614,Ba2Ag8S7,-0.8128910481495106
mp-1228616,BaPb2(SO4)3,-2.293605572465278
mp-1228622,Al9Cr(BO9)2,-3.281484179305556
mp-1228631,B4OsW,-0.2891204872222215
mp-1228639,Ba2LuB2ClO6,-3.3442208902022217
mp-1228643,Ba3In2MoO9,-2.552399468749999
mp-1228644,Ca19Mg2(PO4)14,-3.3188503429853484
mp-1228646,Ba(GeAu)2,-0.492329248
mp-1228659,Ba3Cd(SnS4)2,-1.5864239544642855
mp-1228670,K38Nb7As24,-0.4772088239710144
mp-1228672,B5Ir3W2,-0.3665825131666665
mp-1228674,Ba2AlZnF9,-3.764203949862307
mp-1228679,Ba(B2Pt3)2,-0.4249960584848483
mp-1228681,Ba7Sr5(MoN4)4,-1.087300402544166
mp-1228689,Ba(TeMo)6,-0.481922071538462
mp-1228691,Al4GaSb5,-0.1494500845000004
mp-1228692,BaCaZr8(PO4)12,-3.2632380961122447
mp-12287,La3NbO7,-3.727430395795456
mp-1228701,Al4Ge2W3,-0.0991278255555556
mp-1228704,Ca2Pr19(CoI12)3,-1.2806485155
mp-1228711,Ba10IBr4N5,-1.2452856898450002
mp-1228715,Ba5Nb3O3F20,-3.703992623308064
mp-1228716,Ca3Ga2(SnO4)3,-2.5991762512499994
mp-1228718,Ba3InIrRuO9,-2.2146133700833333
mp-1228719,Al37(Fe6Cu)2,-0.3255630594117639
mp-1228721,Al4InAgSe8,-0.7250986215773807
mp-1228723,Ba10Br4N5Cl,-1.3349893352580005
mp-1228724,AsRhSe,-0.5755914549479163
mp-1228725,Ba10BrN5Cl4,-1.4919380142469998
mp-1228736,Ba5NbIr4O15,-2.30766096295
mp-1228737,Ca14MnP9(O12F)3,-3.3725846428782225
mp-1228740,Ba(AlSe2)2,-1.3093658513392856
mp-1228741,Ba5Ce4ZrO15,-3.599670596549999
mp-1228743,Ba2MnCu(P2O7)2,-2.786477669427313
mp-1228744,Ba3V4(PO4)6,-2.937009317741313
mp-1228745,AsRhS,-0.8411244460416659
mp-1228746,Ca43Al16Pb13,-0.4226817463194443
mp-1228755,Ba8ZrNb19O36,-2.9189434128906244
mp-1228772,Ba(V5S8)2,-1.4410883559259255
mp-1228775,Ba3WO6,-2.86564241625
mp-1228778,Ca2Zr5Ti2O16,-3.7221451356
mp-1228779,Ba8Ca5Mn3Fe8F56,-3.529238982043569
mp-1228781,Ba(V3S4)4,-1.4545736013793098
mp-1228784,Ba10IBr4N5,-1.239244372345
mp-1228791,Ba36Al9Sn23,-0.5774583161764707
mp-1228796,Ba3GdIrRuO9,-2.575433323749999
mp-1228808,Bi11(Se4Cl3)3,-0.767681280155156
mp-1228809,AlReSi,-0.4828464833333339
mp-1228810,AsIrSe,-0.5162803091145834
mp-1228812,CsTi2(CuTe4)2,-0.5129287459946945
mp-1228815,AlRe,-0.3157798950000003
mp-1228817,AlReGe,-0.2496165483333345
mp-1228822,AlV6Sn,-0.09395833625
mp-1228823,AsIrS,-0.7983923885416667
mp-1228828,AsHPbO4,-1.678876091231429
mp-1228829,AlV6Ge,-0.2377373224999983
mp-1228832,AlNi6Ge,-0.3603793512499997
mp-1228843,AlSb3Pb4O13,-1.989221929583333
mp-1228847,AlVCrC,-0.3436428537499996
mp-1228851,BP5(Pb3O10)2,-2.418870312068452
mp-1228855,CsRb2Au7,-0.2730312972931035
mp-1228856,AlPPd4,-0.6645226403174599
mp-1228864,Ba10Pr5Ir(Ru2O15)2,-2.72930764205
mp-1228867,As4PRh10,-0.5442160332380951
mp-1228869,Ba5BiPb4O15,-2.14967001855
mp-1228877,Ba(GaO2)2,-2.6217988346428567
mp-1228881,CsMnCuF6,-2.5714305134095787
mp-1228883,Ba2Pb(SO4)3,-2.558301984826389
mp-1228884,CsH3(SeO3)2,-1.450190258414878
mp-1228886,CsVFeF6,-3.0881395700078924
mp-1228888,AlGaP2,-0.5059993267857141
mp-1228890,AlInSb2,-0.1238824750000002
mp-1228891,AlGaAs2,-0.4115231474999996
mp-1228893,AlGaCo2,-0.4484295875000006
mp-1228894,AlGaN2,-1.122647228689999
mp-1228896,Ba5BiPb4O15,-2.1506386449499995
mp-1228897,Ba10Nd4Y(MoO6)5,-3.0467767670166666
mp-1228899,CsVNiF6,-2.913779188896781
mp-1228900,AlGeMo,-0.2781808322222214
mp-1228905,Al2FeCo,-0.4725724837500005
mp-1228909,Al3SiPd4,-0.8233260681250005
mp-1228910,Al2FeNi,-0.5238764575000001
mp-1228913,Al2CoNi,-0.6241348937500009
mp-1228914,Al4CrNi15,-0.3510479104999994
mp-1228918,AlGaNi6,-0.3574455175000004
mp-1228922,AlCr6Si,-0.2092573868749987
mp-1228926,AlIn(AgSe2)2,-0.5173472182552081
mp-1228932,Ba11(Bi3O10)3,-2.272954251349999
mp-1228935,AlIn(AgS2)2,-0.9215746073958332
mp-1228942,CsCuRhF6,-2.1469303855634485
mp-1228943,AlGa3N4,-0.8955107311899999
mp-1228944,CsRbMnF6,-2.9236022459095783
mp-1228946,Ba10MgMn3V8(Cl3O7)4,-2.747905289020949
mp-1228948,AlGa(PO4)2,-2.8608238280952385
mp-1228950,AlGa(CuSe2)2,-0.5505837736718746
mp-1228953,Al2GaN3,-1.2794190953566666
mp-1228955,Cs4Na2ScGaF12,-3.336263277550207
mp-1228961,AlCuSnS4,-1.004811571785715
mp-1228963,AlAgSnSe4,-0.5039380203869044
mp-1228964,AlAg(PSe3)2,-0.3046032104538689
mp-1228967,AlCr4GaC2,-0.151456801250001
mp-1228970,Al8Zn3CoO16,-2.99975454625
mp-1228971,AlV9Au2,-0.0875324854166663
mp-1228975,Al2Cr3CuS8,-1.2011173082142872
mp-1228976,Ba(BiS2)2,-1.271288626230159
mp-1228982,CsMnFeF6,-2.966164141187357
mp-1228984,AlCu(PSe3)2,-0.2761165261205349
mp-1228988,AlAg3,-0.0738142384999999
mp-1228992,AlGe3Mo2,-0.2242979766666661
mp-1228996,Al2Ga2Bi2O9,-2.465515228083333
mp-1229,CuF2,-1.8322256507933328
mp-1229011,AgSnSe2,-0.2927449670052087
mp-1229012,AgPd,-0.0605919816666666
mp-1229015,AgPt,-0.0353604916666663
mp-1229021,CsVCuF6,-2.778397315007893
mp-1229027,AlCuSnSe4,-0.5055363756250004
mp-1229031,AgPd2Au,-0.057328683333333
mp-1229032,AgPt4,-0.0371784266666665
mp-1229039,Al3ZnNi12,-0.3533070553125013
mp-1229046,AlIn(CuSe2)2,-0.5240127336718752
mp-1229049,AsBrOF8,-1.8562014505245448
mp-1229053,AgHgAsO4,-1.143946996190476
mp-1229054,Al53Fe17Si12,-0.3111164104878038
mp-1229056,As3P3Pb10(ClO12)2,-2.030412638148436
mp-1229058,Cs2TeP2H8O13,-1.9032972030082669
mp-1229060,Al(V4Ge)3,-0.2857963356250002
mp-1229061,Ba2Pb(SO4)3,-2.5586796748263887
mp-1229062,Al(V4Si)3,-0.3793304040625003
mp-1229069,Al3Tl4Fe(As2O7)4,-1.94991378375
mp-1229073,Ba2Pb(SO4)3,-2.558578521493056
mp-1229080,Ce5Cu19P12,-0.5295126113293647
mp-1229092,AgAu,-0.0417395016666666
mp-1229097,AlCrFeO4,-2.6218244371428576
mp-1229098,Cs3BAsP,-0.3655607159496436
mp-1229104,AlH15(OF)6,-1.8823639046050005
mp-1229109,Cs2OsBrClF4,-2.129505221542452
mp-1229110,AlBi3Sb2O11,-2.0613958111029405
mp-1229114,Al(V4Sn)3,-0.0847505856249997
mp-1229118,Ag6SnSb,-0.0043826631250003
mp-1229122,Ag2HgI4,-0.2992946652380951
mp-1229124,Ag3AsO4,-0.9770101256249992
mp-1229128,Ag3PO4,-1.4211766441964286
mp-1229131,Ba10Pr4Y(CuO2)20,-2.0406463600444447
mp-1229136,Ba20Ru11PtO48,-2.311946105
mp-1229145,Ag6SbAsS6,-0.3965096581250001
mp-1229147,AlFeB2(PbO4)2,-2.4413242211904764
mp-1229153,Cs(ThTe3)2,-1.108904833103448
mp-1229155,Ag4Hg4S4BrCl3,-0.6043950003508334
mp-1229156,Cs3(SeO4)2,-1.602525518344662
mp-1229160,Cs8(Re4S9)3,-1.1440408792090049
mp-1229164,Cs(ThSe3)2,-1.4751701168881708
mp-1229165,Ag3Bi7S12,-0.6470208089772733
mp-1229179,AlIn3(CuSe2)4,-0.4738664474218748
mp-1229181,Ag6Au2Se3S,-0.1284947662630209
mp-1229182,Ag9Ge2NO11,-0.888773332875217
mp-1229190,BaCa3Zr16(PO4)24,-3.2608297282193868
mp-1229194,AgAu(IO3)4,-0.7238605532407405
mp-1229199,Ba17SrSm12Cl68,-2.779478328656599