material_id,pretty_formula,formation_energy_per_atom
mp-14088,Rb2PdF6,-2.422638928015556
mp-14089,TlCuS2,-0.5548269565624997
mp-1409,TiNi3,-0.4831274137500001
mp-14090,TlCuSe2,-0.234745481171875
mp-14091,AlAgSe2,-0.6188816720052084
mp-14092,AlAgTe2,-0.3594969620833335
mp-14093,TbOF,-4.279362765813334
mp-1410,DyN,-1.89024174119
mp-14100,Cd(RhO2)2,-1.2317586635714284
mp-1411,TaS2,-1.4863878754166666
mp-14115,LiRhO2,-1.5742210322916668
mp-14116,CuRhO2,-0.9752979606250004
mp-14118,Sc2(MoO4)3,-2.685830285441176
mp-1412,Ti3Sb,-0.3793237874999997
mp-14125,Ho2(Ga3Co)3,-0.4850137035714285
mp-14128,K2HfF6,-3.752768320904445
mp-1413,P2Ru,-0.6092533057142866
mp-14132,Lu3Al5O12,-3.73457611375
mp-14133,Gd3Al5O12,-3.663423499875
mp-14134,Lu3Ga5O12,-2.999323135
mp-1415,CaSe,-2.0253863486718746
mp-14152,SmNbO4,-3.548297992222223
mp-14155,HoP5O14,-2.8346367231428573
mp-14161,Sr4Al6SO16,-3.31580601554784
mp-14168,K2GeF6,-3.0574261253488886
mp-14172,SrSi2,-0.3638760130555554
mp-14175,K3NbO8,-1.6918761874166666
mp-1418,FeNi3,-0.0901765575000004
mp-14190,NdPO4,-3.4588483489285715
mp-14193,K2ThF6,-3.9212936081266654
mp-142,Ga,0.0
mp-14205,K3Cu3As2,-0.308089082375
mp-14206,K3Ag3As2,-0.3636897336249998
mp-14207,Ba(ZnSb)2,-0.5321697735
mp-14208,LiYSi,-0.6136811272222218
mp-14209,LiYGe,-0.7352763899999997
mp-14210,LiGdGe,-0.7132429422222231
mp-14213,Sr4GeP4,-0.9457260326058198
mp-14214,Ba4SiP4,-0.971056263531747
mp-14215,Ba4GeP4,-0.9066508925595242
mp-14216,Ga8(Pb3O7)3,-1.9185449005592097
mp-1422,GdPt2,-1.0954853666666662
mp-14232,LiBO2,-2.738078761875
mp-14234,MgB4O7,-2.931193927847223
mp-14235,SrGa2(SiO4)2,-2.997475585705128
mp-1424,GePd,-0.4656212250000004
mp-14241,Tl2SiSe3,-0.4831303228385414
mp-14242,Tl2GeSe3,-0.3792067578385414
mp-14243,Cd3TeO6,-1.5296814597500004
mp-14244,Y3Si3Pd2,-0.9671684843749988
mp-14245,Dy2Si5Rh3,-0.9799120494999995
mp-14246,Ba(AlS2)2,-1.8469991616666663
mp-14249,Th(PS3)2,-1.2935988117658737
mp-1425,TiCr2,-0.102555513333332
mp-14252,Ca3UO6,-3.63079312675
mp-14260,ZnAg(PO3)3,-2.3151819359141155
mp-14266,Cu15Si4,-0.0748102331578943
mp-1427,Lu2O3,-4.133255665999999
mp-14276,RhPb2F7,-2.3908532385830004
mp-1428,Ni5Ge3,-0.3132760731250004
mp-14280,Ga2Sn2S5,-0.956307993125
mp-14283,Sr2InF7,-3.705239129916333
mp-14285,CoP2,-0.5329700240476191
mp-14288,Sr3P4,-0.95706210632653
mp-14289,Ba3P4,-0.9497428391836736
mp-14292,Ba2NdSbO6,-3.0181201662499992
mp-14294,Ba2YbSbO6,-2.8191861659166664
mp-14298,Zr6Ni20P13,-0.8797551256776571
mp-143,Tm,0.0028114216666663
mp-14304,Lu2MgS4,-2.274756397976191
mp-14307,Mg(ScS2)2,-2.161672380119048
mp-1431,MnSi,-0.4385236748275867
mp-14316,KPr(SeO4)2,-2.021307497515625
mp-14322,Ba3Tm4O9,-3.635920334661458
mp-14323,Ba3Ho4O9,-3.5913164575781247
mp-14324,K2Na4Be2O5,-2.0281499005576924
mp-14325,La(Ni2B)6,-0.4021214910526321
mp-14326,Tm11(Ni10C)6,-0.2898559215151511
mp-14328,Pr3GePO9,-3.3358865046301025
mp-14333,TaAlO4,-3.412274416666667
mp-14334,K2RbPdF5,-2.53854385105
mp-14336,Cs2Ni3Se4,-0.6507020839152307
mp-14338,Cs2Pt3Se4,-0.7066776505818966
mp-14339,K2Pd3Se4,-0.7079779433749995
mp-1434,MoS2,-1.30833405875
mp-14340,Rb2Pd3Se4,-0.7210609615972225
mp-14345,BaZnP2O7,-2.848008893262988
mp-1435,SrZn5,-0.2228269477777778
mp-14352,KGeSbO5,-2.1084830242812505
mp-14353,BaNaNd(GeO3)3,-2.64254489675
mp-14354,Rb2SrP2O7,-2.924849573546627
mp-14355,Cs2SrP2O7,-2.914148918618467
mp-14356,Dy3MnB7,-0.6048853484535008
mp-14363,Rb2LiAsO4,-2.116743579583333
mp-14364,Cs2LiAsO4,-2.109227337191092
mp-14367,AsPO5,-2.077309256045918
mp-14368,SbAsO5,-1.7457518566071428
mp-1437,LiCd,-0.2592367208333332
mp-14373,Y3B7W,-0.5820417903030297
mp-14374,Na3Rh(NO2)6,-1.2133239892854548
mp-14377,KTaGeO5,-2.74717488178125
mp-1438,ZrIr3,-0.72576061
mp-14380,CsNaSnF6,-3.049706793202337
mp-14383,KGePO5,-2.465189453633929
mp-14384,Ba3Ho(BO3)3,-3.314845463515625
mp-14385,Ba3Tm(BO3)3,-3.324799215494792
mp-14386,Ba3Lu(BO3)3,-3.329652124036459
mp-14387,Tb3Al5O12,-3.700037553875
mp-14388,Ho3Al5O12,-3.714877077125
mp-14389,Na3AlP8O23,-2.701573192137756
mp-14390,Na3GaP8O23,-2.60622499392347
mp-14391,Na3VP8O23,-2.6354556523520403
mp-14395,NaAlAsO4F,-2.6235096657737498
mp-14396,Mg3(PO4)2,-3.0756337078571425
mp-14398,CaSn(BO3)2,-2.848945813916667
mp-14399,LiAlSiO4,-3.2190105342857143
mp-14401,NaCaPO4,-3.0465127209863945
mp-14406,Ba2Re6S11,-1.2648774494407888
mp-1441,CsO2,-0.9698377834770112
mp-14410,Tl6TeO12,-1.215052597631579
mp-14411,K4GeO4,-1.9683266857777777
mp-14415,Pr2Be2GeO7,-3.234299951979168
mp-14416,Sm2Be2GeO7,-3.26898772920139
mp-14420,Er2Be2GeO7,-3.3012165128125006
mp-14422,Ca(AlS2)2,-1.7893006982142867
mp-14423,Ca(GaS2)2,-1.4976752980357146
mp-14424,Sr(AlS2)2,-1.84487483202381
mp-14425,Sr(GaS2)2,-1.550998815416666
mp-14428,KNa4GaO4,-1.82512949205
mp-14429,CsK4GaO4,-1.7202623956181031
mp-1443,Sn3F8,-2.7344045513200004
mp-14430,Sr2YRuO6,-2.8250553129166662
mp-14433,NaGe2N3,-0.4024839228566665
mp-14434,K3GeS3,-1.320433809053571
mp-14435,K3GeSe3,-0.9949759601473211
mp-14437,RbYO2,-3.030379865833333
mp-14439,K5TlO4,-1.4107651742499996
mp-1444,CaCd2,-0.3417778983333332
mp-14444,Hf(PS3)2,-1.1248215773214294
mp-14445,Ca(BIr)2,-0.6832467543333337
mp-14447,Ba2SiSe4,-1.4553411813392851
mp-14448,Ba2SiTe4,-1.062016310714286
mp-14455,Cu4Ag(AsO4)3,-1.2720537821666666
mp-14457,Na3Li3Ti2F12,-3.351591320339
mp-14458,Na3Li3Cr2F12,-3.159192623839
mp-14466,KLi6IrO6,-1.896494085035714
mp-14469,KHg(PO3)3,-2.397845765354592
mp-1447,SmSe,-1.8102332778385417
mp-14474,Ta2PtSe7,-0.6212066081406249
mp-1448,NdGa,-0.588185025
mp-14484,KNaLi2(SO4)2,-2.3990517348273808
mp-14485,LaTa7O19,-3.446680761064815
mp-14488,Li3In2(PO4)3,-2.5994405917857137
mp-14493,Na5InO4,-1.6968737321249996
mp-14495,Li6ZnO4,-2.0420195913636365
mp-145,Lu,0.0
mp-14500,Sr(As3Pt2)2,-0.6717782465151511
mp-14501,Ba(As3Pt2)2,-0.663131539090909
mp-14503,Er3CrB7,-0.6235008630303027
mp-14504,Hf6Cr5Si7,-0.6299909673611097
mp-14506,Al7Te10,-0.4344581335294113
mp-1451,NbNi3,-0.2928548987500008
mp-14511,NaAlGeO4,-2.6356926580952376
mp-14513,Ni8P3,-0.4568726593831171
mp-14515,NaNd(GaS2)4,-1.4032609987500009
mp-14526,Na4Hf2(GeO4)3,-2.69581351904762
mp-1453,NdSe,-1.8303094511718747
mp-14535,In(PO3)3,-2.559904557202381
mp-14536,KNa2Zn3(PO4)3,-2.508098075295918
mp-14542,Y3FeB7,-0.5897437439393927
mp-14551,Sr2CaUO6,-3.5855616665833323
mp-14552,Ba2SrUO6,-3.518765450416667
mp-14555,LaCd(BO2)5,-2.9207730440686266
mp-14556,SmCd(BO2)5,-2.899864180882352
mp-14558,Ba2Mg(PO4)2,-3.2430335579212444
mp-14561,Ba(SiIr)2,-0.8545110370000003
mp-14563,NaCa3IrO6,-2.508939310227273
mp-14565,K3P6N11,-0.8232049033304278
mp-14568,BaMgF4,-4.012782805515556
mp-14577,Rb4Ta2S11,-1.363294933492648
mp-14578,Cs4Ta2S11,-1.385017127123479
mp-1458,Nb3Ir,-0.4026638687500004
mp-14581,CsCu2F6,-2.144482663341226
mp-14588,Na2PtSe2,-0.8171278809374997
mp-14589,Hf2Si4Ni3,-0.7503602722222225
mp-146,V,0.0
mp-1460,RbGa7,-0.1035232528124998
mp-14600,CaAl2O4,-3.462486528571429
mp-14613,Pr10Se19,-1.6842630780872845
mp-1462,Sn2Au,-0.14446254625
mp-14620,Tm2CdSe4,-1.5065583222916672
mp-14622,Y(BIr)2,-0.7437281280000008
mp-14623,K5CuAs2,-0.342257923125
mp-14624,K5P2Au,-0.3724426540178567
mp-1463,LaIr2,-0.7383099283333342
mp-14634,K2VAgSe4,-0.8555053835885413
mp-14635,Rb2VAgSe4,-0.8685531097135417
mp-14636,Rb2NbAgS4,-1.3457872719791668
mp-14637,Cs2NbAgSe4,-0.9624145379463004
mp-14638,Rb2LiGaF6,-3.108713362380666
mp-1464,Nd5Ge3,-0.7043164925000003
mp-14643,Er2Te3,-1.3863506114999993
mp-14646,Li2Mg2(SO4)3,-2.492456511282895
mp-14648,NaZnPO4,-2.4930451028911564
mp-14649,Tb2Ge2O7,-3.065664742840909
mp-14650,Nd10Se19,-1.6799301906734916
mp-14652,Cs2P3,-0.4605906183152711
mp-14653,AgSb2F12,-2.413248061840889
mp-14659,KAsSe2,-0.618970693171875
mp-14665,KNd(SO4)2,-2.671803931395833
mp-14673,Sb9S4F39,-2.531412137479038
mp-14676,NdTa7O19,-3.4319546129166647
mp-14678,Y3Sc2Al3O12,-3.817438337500001
mp-1468,P4S3,-0.4307163410586737
mp-14686,Y5(Si7Os2)2,-0.6414982965942018
mp-1469,P4S3,-0.4305364337372452
mp-14696,La2B4Rh5,-0.6967331012121217
mp-14698,Ho2Fe14B,-0.1140854528431368
mp-1470,Nb12O29,-3.049745215640244
mp-14704,Li6Y(BO3)3,-2.836423005899122
mp-14708,Tm2Ge2O7,-3.097335631628789
mp-1471,Zr3Al,-0.296003122500001
mp-14712,Li7PN4,-0.8631628364381747
mp-14715,Pr2Au5F21,-2.2565349293746424
mp-14716,Nd2Au5F21,-2.257058052946072
mp-14718,Na2MnCrF7,-3.0580905683889554
mp-1472,ZrB2,-0.9873546855555552
mp-14721,KSiSbO5,-2.5498642067812503
mp-14722,NaSrAlF6,-3.849961560422964
mp-14726,Na4TiO4,-2.4416102816666663
mp-14734,CsCOF3,-2.349572502541838
mp-1474,Re3P4,-0.3808244784693875
mp-14743,Ba3WN4,-1.0969107625962504
mp-1475,Be12Mo,-0.1267726638461545
mp-14753,Li7TaN4,-0.9501955432238892
mp-1476,ScS,-2.1924316190625
mp-14761,TmAu2F9,-2.4152124347119446
mp-14765,Ba(Ni5P3)2,-0.6364806506722687
mp-1477,BaSi2,-0.361510358333333
mp-14778,Ca3Zn3(TeO6)2,-2.330715117374999
mp-14780,Na6MnSe4,-0.982057654457288
mp-14785,Ba(Cu2P)4,-0.2859507580219783
mp-14786,Ba(Cu2As)4,-0.2180199192307697
mp-1479,BP,-0.4073490034523814
mp-14790,Ge(Te2As)2,-0.0378816085714279
mp-14793,Mg2SiPt,-0.617122741666666
mp-14796,KPt2Se3,-0.6438279733385416
mp-14797,RbPt2Se3,-0.6485479407552083
mp-14802,LuAu2F9,-2.4095113674897224
mp-14815,TaTe5Pt,-0.3615910450000003
mp-14817,PrP5O14,-2.834208392142858
mp-1482,Zr2Al3,-0.5213929790000001
mp-14827,Li7NbN4,-0.8965435334322217
mp-14835,Nd4Si2S3O7,-3.2833252814453138
mp-14836,Pr4Si2Se3O7,-3.0924378078613284
mp-1484,Pr4Sb3,-1.065268834285714
mp-14842,Mg3(Ni10P3)2,-0.4823844548768471
mp-14853,Ba3Er4O9,-3.609569534453125
mp-14854,Sr2LiIn(B2O5)2,-2.9059708272685176
mp-14858,Rb4Tc6S13,-1.193093459374999
mp-14864,Cs2Ti(PO4)2,-2.908061528115764
mp-14865,Sr4Al6WO16,-3.314647367145062
mp-1487,AlNi,-0.6575662599999994
mp-14871,Li16Ta2N8O,-1.0655649935909874
mp-14873,K4Nb8Si(P2O17)2,-2.954768611054622
mp-14880,La2Ta3(SO4)2,-3.284836158416668
mp-14885,Rb2Cu2Si8O19,-2.873056852217742
mp-14889,K9Fe2S7,-1.232241447298611
mp-149,Si,0.0
mp-1490,AlAu4,-0.2109424285000002
mp-14901,NaZnAsO4,-1.946401345833333
mp-1491,VB2,-0.7393577522222223
mp-14912,La4Si2Se3O7,-3.180560855048828
mp-14921,Zn4B6SeO12,-2.4266320481453807
mp-14926,Sr2ScF7,-4.272388578916333
mp-14929,KV3P4O17,-2.609665237441427
mp-14931,SrCuP2O7,-2.643746587732684
mp-14935,P3RhO9,-2.2923722529716124
mp-14941,Al2Pb3F12,-3.268273763487059
mp-1495,ErIr2,-0.8391745466666668
mp-14951,Rb3AlO3,-2.1995090923214287
mp-14963,Pr3NbO7,-3.616650174886364
mp-14964,Pr3TaO7,-3.727031723977274
mp-14969,BaErCuS3,-2.038938747395834
mp-14970,BaLaCuBO5,-2.8712265699537034
mp-14972,Ba3Sc(BO3)3,-3.29091154841146
mp-14973,AgMo2P3O13,-2.306704095541978
mp-14977,Na3Y(Si2O5)3,-3.173562842283333
mp-1498,Al21Pd8,-0.5563219960344828
mp-14983,Si4P4Ru,-0.3592190671428565
mp-14988,K4SnO3,-1.5998929761875005
mp-1500,BaS,-2.4102545115625
mp-15002,Sr2CaIrO6,-2.5341882370833333
mp-15003,Ca3HfSi2O9,-3.593302146583334
mp-15004,Ca3ZrSi2O9,-3.54940101875
mp-15009,La3(GeRh)4,-0.9310112568181814
mp-1501,Al3Pt5,-0.90790600375
mp-15012,KBS2,-1.2117898864791663
mp-15013,RbBS2,-1.2133317542708333
mp-15016,Nd4Si2Se3O7,-3.0978806170800786
mp-1502,Al2Pt,-0.8940339766666661
mp-15021,Ba3Ta5O15,-3.44473856972826
mp-15026,Nd(FeSb3)4,-0.1898487323529406
mp-15039,Ba2Yb(CuO2)4,-1.9379518637777773
mp-15046,Sb2(PSe3)3,-0.1330743474505737
mp-1505,TmMg,-0.0603344433333332
mp-15050,Pr(PdO2)2,-1.9429555100000004
mp-15051,Nd(PdO2)2,-1.9558497057142847
mp-15053,Y(PdO2)2,-1.9926851426190475
mp-15059,GdSnF7,-3.5646417564811106
mp-1506,Sm5Ge4,-0.8271833332407412
mp-15065,Cu(IrS2)2,-0.7533657496428573
mp-15066,LiTmSiO4,-3.4503905875
mp-15073,BaSmC2O6F,-2.917906422456668
mp-15074,Sr(PIr)2,-0.906430552761904
mp-15077,Ag7AsS6,-0.3502910528273811
mp-15079,Cs4KLiGa2F12,-3.1041119952835405
mp-1508,LaS2,-2.305270462083334
mp-15081,Sm2Se3,-1.888855260239584
mp-1509,Sn2S3,-0.8008962858749996
mp-15093,Zr2P2WO12,-3.0331140408613453
mp-15095,Ca3Si2SnO9,-3.210673880583333
mp-151,Tl,0.0097017300000001
mp-15103,Sr3Y2(GeO4)3,-3.069826066583334
mp-15107,KSnAsO5,-2.0418921813125
mp-15108,RbSnAsO5,-2.035913661875
mp-15109,Sm(ZnP)3,-0.6024482555782313
mp-15123,Th(AlC)4,-0.2002281011111119
mp-15125,Rb2CdSi5O12,-2.9595104029374992
mp-15126,Cs2MnSi5O12,-3.0347874110113624
mp-1513,Co9S8,-0.7918326917647065
mp-1514,UB2,-0.5841660955555549
mp-15141,NaZr2ZnF11,-3.660584563206
mp-15147,K2VCuS4,-1.3503332735624998
mp-15148,K4Nb2S11,-1.3262496544926472
mp-1515,ZrSi2,-0.6490766366666669
mp-15157,Cs2CaF4,-3.494874130803152
mp-15170,Lu2Sn2O7,-3.03871271534091
mp-15171,K2MgSiO4,-2.7870904556979164
mp-15177,Ho4C7,-0.290344745
mp-15178,Lu4C7,-0.3253294813636374
mp-15179,Pr2S3,-2.451995752875001
mp-1518,CeRh3,-0.6538609112499989
mp-15186,Er(CuO2)2,-2.098776351428572
mp-1519,CaTe,-1.6513943025
mp-15201,Pr2Ti2O7,-3.726902077386365
mp-15204,Tb2Si5Ni3,-0.7964059070000005
mp-15205,Dy2Si5Ni3,-0.7929750295000012
mp-15206,Ho2Si5Ni3,-0.7882789164999998
mp-15208,Nb4GaSe8,-0.8040545552884617
mp-1521,Sb7Mo3,-0.0136168185000002
mp-15214,K2NbAgS4,-1.327856859604167
mp-15216,K2TaAgS4,-1.3648915664791668
mp-15217,Rb2TaAgS4,-1.3829801144791665
mp-15218,Cs2TaAgS4,-1.4128444677119258
mp-15219,Rb2VCuS4,-1.3609001203125004
mp-1522,FeS2,-0.955323590416666
mp-15220,K2VCuSe4,-0.9059650919218752
mp-15221,Rb2NbCuS4,-1.3967631365625
mp-15222,Rb2NbCuSe4,-0.9564410042968748
mp-15223,Cs2NbCuSe4,-0.9856222669046336
mp-15225,Nd2Si2O7,-3.6190705201136377
mp-15227,NdPd3S4,-1.2422496115624997
mp-1523,ZrP2,-0.9606302090476196
mp-15237,Tb4C5,-0.3093215000000005
mp-15238,Ho4C5,-0.3376625394444438
mp-15239,Nd3Ga5O12,-2.914632413
mp-15248,K3Nb3(BO6)2,-2.886283086533333
mp-1525,CeTe,-1.3627985025000005
mp-15250,NaCd(PO3)3,-2.534837511033163
mp-15252,Cu2GeS3,-0.6516053373958327
mp-15254,Li3AlF6,-3.4999783698806666
mp-15257,Tb2Se3,-1.8717776324062487
mp-15269,Sr3CdIrO6,-2.3698175238636363
mp-1527,TbCu2,-0.2646802450000003
mp-15277,La5Cu19P12,-0.5378562585515867
mp-15282,RbMn4(AsO4)3,-1.9916637144980345
mp-1529,LuIr,-0.9704112999999994
mp-15293,TmTiGe,-0.7002868927777778
mp-15297,Hf6NiSb2,-0.4940900022222223
mp-153,Mg,0.0060507516666667
mp-15307,ErSi3Rh5,-0.973517171296296
mp-15308,TmSi3Rh5,-0.9712513250000004
mp-15312,Ca4Al6TeO12,-3.3356681776086954
mp-15315,Ca4Ti3O10,-3.535731814852941
mp-15317,Rb2NaHoF6,-3.616636179714
mp-15318,Rb2NaHoF6,-3.617973632714
mp-15322,ScCuSi,-0.6693482488888883
mp-15323,Nd(BOs)4,-0.3808822225925926
mp-15325,BaAs3,-0.6281534762499996
mp-15326,Sm3IrO7,-3.043281666704546
mp-1533,Nd3Tl,-0.2114138549999999
mp-15339,Sr3As4,-0.9585678214285716
mp-1534,YS,-2.325830068229166
mp-15349,Li2GeO3,-2.3306759420138885
mp-15355,U(BRu)4,-0.4203324723148161
mp-15359,GdAl3(BO3)4,-3.2489773649166667
mp-1536,KSb,-0.4308502165000001
mp-15362,Li3Nd2(BO3)3,-3.1032056424264702
mp-15363,Li6Yb(BO3)3,-2.691280644758772
mp-15379,K2SiO3,-2.682970479125
mp-15380,Sb9Se4F39,-2.49578507996702
mp-15382,TmP5O14,-2.843702062309524
mp-15385,Na2UP2O9,-2.967750590599489
mp-15387,Ba6Cu11F34,-2.68023286373451
mp-1538990,MgNiF6,-2.3659746225591665
mp-1539,ZrTe,-0.8975873700000001
mp-1539038,AlTl2F5,-2.9966409482437504
mp-15391,Na4TeO5,-1.895255549125
mp-1539101,TeSeO4,-1.362906526223958
mp-1539136,CaCu2F8,-2.389247312229091
mp-1539190,Cs2Hf(WO4)3,-2.598969576159004
mp-1539213,CrF6,-2.092553889591428
mp-1539317,Ta2O5,-3.351821771607142
mp-1539330,CaCoF6,-2.7917352271425004
mp-1539332,TiZnF6,-3.3466006852675
mp-1539446,Cs2PtCl4,-1.703283710557438
mp-15395,CsBePO4,-2.8795808612860663
mp-1539667,CsPbCl3,-1.876771892542208
mp-1539672,Ca(MoO2)2,-2.3999968228571413
mp-1539959,CaFeF5,-3.419781917992857
mp-154,N2,8.881784197001252e-16
mp-1540,HoTl,-0.31607545
mp-1540000,BaGaH5,-0.3472616640142857
mp-1540016,Ca(AgO2)2,-1.356055055238095
mp-1540145,Ca(CuO2)2,-1.7198596864285716
mp-1540169,CsSbWO6,-2.1793923278256693
mp-1540429,LiBiO2,-1.8535255754166664
mp-1540438,Mg(CrS2)2,-1.2976494629761908
mp-15405,RbMo2P3O13,-2.513012164840225
mp-1540546,RbPbF3,-2.799558900214
mp-1540553,Rb2Ti(TeO4)3,-2.0130907677777774
mp-1540712,Ca2Ti3O8,-3.566369432307692
mp-1540758,MgCoF6,-2.620062931934167
mp-15408,KGaF4,-3.07175536296
mp-1540904,KTaF6,-3.622814163142501
mp-1540935,GeI2,-0.3423248688888887
mp-1541,BeSe,-0.7932104286718751
mp-1541180,ZnNiF6,-1.9127893377675
mp-1541458,Mg(ReO4)2,-2.4178647666666664
mp-1541477,CaMoF6,-3.4067157652675
mp-15415,K2GaAs2,-0.4910285792
mp-1541522,BiPO4,-2.427863658928571
mp-1541531,CaMnF6,-3.2243351940943965
mp-1541564,CsTlF4,-2.52670383128184
mp-1541585,Mn2As2O7,-1.9180916654527584
mp-15416,Rb2GaAs2,-0.4763580732500003
mp-15417,K2GaP2,-0.4630631938785718
mp-1541714,Cs3As2Cl9,-1.6947308166523645
mp-1541753,Rb2MgO2,-1.9155106406666664
mp-1541943,Zn(CuO2)2,-1.1384420128571426
mp-1542,YB2,-0.5637628300000005
mp-1542014,La2MgNiO6,-2.788166673083333
mp-1542038,CsSnSe3,-0.6886525919924565
mp-1542042,CsHg5Cl11,-1.1661916513994728
mp-1542401,MgSnF6,-3.2547736250591672
mp-1542604,MnZnF6,-2.573031914094397
mp-1542727,TeF6,-2.412400068162857
mp-1542758,SrMoO3,-2.6756306850833327
mp-1542774,Mn3Zn2O8,-1.8362930155265784
mp-1542939,BaMo(PO4)2,-2.856303287261905
mp-1542940,TiTlPS5,-1.1340894630245542
mp-1542973,ZnCoF6,-2.158360028392501
mp-1543,Ge2Pt,-0.3438658916666662
mp-15431,Na2Ga2As3,-0.4118349876785717
mp-1543124,RbSbWO6,-2.168872748888889
mp-1543154,MgMnF6,-3.042984933886064
mp-15432,K2Ga2As3,-0.4663145821071427
mp-15433,K2Ga2Sb3,-0.3534488471071429
mp-15437,MgP4O11,-2.7044777485230656
mp-15438,ZnP4O11,-2.490252184408482
mp-1545,Nb3Rh,-0.2611813400000002
mp-1546,DyMg3,-0.0770764625
mp-15472,Ba4LiCu(CO5)2,-2.4907084388425926
mp-1548,PrMg,-0.1143587791666664
mp-15483,Zn3(AsO4)2,-1.7780144726923075
mp-1549,TbPt3,-0.9877882775
mp-15492,DyTa7O19,-3.431099288842592
mp-155,Gd,0.0
mp-1550,AlP,-0.609303329285714
mp-15500,Sr4TiP4,-1.1158342077447092
mp-15501,Sr4TiAs4,-1.1250850208796292
mp-15502,Ba4TiP4,-1.0706962840873016
mp-15503,Ba4TiAs4,-1.1071464456944444
mp-1551,Te2Ir,-0.2933758022222221
mp-15511,CaTe3O8,-1.9074846191666663
mp-15514,NaSe2,-0.5718088490624998
mp-15515,BaNaAlF6,-3.852290512321111
mp-15519,NdZn(BO2)5,-2.929569636862745
mp-1552,Mo2C,-0.1131892033333332
mp-15521,Ba2LiSi3,-0.4306750173611101
mp-15526,SrVZnP2O9,-2.776964828664965
mp-1553,HoNi5,-0.3333184550000005
mp-15539,CaMn2Be3(SiO4)3,-3.053703483510968
mp-1554,KTe,-0.835438197333333
mp-15541,KNa2Si12(BO10)3,-3.1326124863645823
mp-15543,NaLiZr(Si2O5)3,-3.254645880642361
mp-15547,Na2ZnGaF7,-2.928040320302728
mp-15549,K2LiAlF6,-3.487280460480666
mp-1555,V3Sb,-0.2163618412500003
mp-15551,Sr2LiSi3,-0.4424415337499994
mp-15553,KGd2CuS4,-1.9970250981875
mp-15556,Rb2As3,-0.4139549769999998
mp-15557,Cs2As3,-0.4447087831724136
mp-15558,Li3GaF6,-3.1460741418806664
mp-15559,KSb5S8,-0.7687263711071434
mp-15560,Ga(PO3)3,-2.578218690407509
mp-15567,Na3AuS2,-1.1295195668750002
mp-1557,Mg3Au,-0.4172695704166666
mp-15571,K3AuSe2,-0.9822352581145836
mp-15572,Na3Ca3AlAs4,-0.8657513940909088
mp-15573,Tl3AsO4,-1.4390410324999996
mp-15575,Ho3Ga5O12,-2.988592478375
mp-15576,Dy3Ga5O12,-2.984394313125
mp-15577,Pr4Ga2O9,-3.3142056342499995
mp-1558,SrPd2,-0.6379818322222217
mp-15588,Ce(BRu)2,-0.5369439663333324
mp-1559,Mg3N2,-0.9067181757019996
mp-15590,Sr2Nb2O7,-3.309517957121213
mp-15599,K2Ca2(SO4)3,-2.644014174493421
mp-156,La,0.0006659949999994
mp-1560,LaTe,-1.5935654174999998
mp-15600,K2Ca2(SO4)3,-2.64652066475658
mp-15603,HoB2C,-0.5415218276041669
mp-15604,TmB2C,-0.5591859781250008
mp-15605,ScSi3Ni2,-0.6653629774999992
mp-15608,Ba(MnAs)2,-0.6696250218620691
mp-1561,TbSe,-1.7630627611718743
mp-15613,Cu(RhS2)2,-0.8158874739285713
mp-15614,Cu(RhSe2)2,-0.3887632556250001
mp-15617,Cr5B3,-0.4156526906249986
mp-1562,ThBe13,-0.1570395078571433
mp-15622,HfSe3,-1.0126374092578132
mp-15626,Rb2NaTiF6,-3.332328747714
mp-1563,CaSi,-0.5424978625000003
mp-15634,Cs2NaTiF6,-3.315106705300207
mp-15637,ZnRhF6,-2.1326757490175003
mp-15638,CdRhF6,-2.1043564146425
mp-15639,HgRhF6,-1.8137255546425
mp-1564,NaTl,-0.11832422
mp-15641,CaMgGe,-0.5733212986111109
mp-15642,SrMgSi,-0.3950009166666668
mp-15643,SrMgGe,-0.5382254166666662
mp-15644,DyB2C,-0.532088895416666
mp-15645,Ag8SnS6,-0.387570163361111
mp-15649,As2Ir,-0.4831109350000003
mp-15651,NiSe,-0.2841245245052087