material_id,pretty_formula,formation_energy_per_atom
mp-2048,TlTe,-0.2635001746875001
mp-20481,MnSnPd2,-0.4172208349137927
mp-20483,Pb,0.0
mp-20485,InSe,-0.506577306171875
mp-20489,SrPbO3,-2.1653193400833333
mp-2049,ZrMo2,-0.1385884299999998
mp-20490,NdNiSn,-0.6303689841666665
mp-20492,ScSiRh,-1.121028978333334
mp-20493,Mg(InS2)2,-1.1817850844047617
mp-20496,Ga2PbO4,-2.078769175714285
mp-20497,SrIn2Ir,-0.4076398329166659
mp-20498,YbGeRh,-0.8930089872222217
mp-2050,HoSb,-1.1059288425
mp-20502,GdCuSb2,-0.6445368587499996
mp-20506,NbNiTe2,-0.4442258156249998
mp-2051,LaCu2,-0.2156594683333335
mp-20514,GdSnAu,-0.8453085666666654
mp-20516,InPt3,-0.354351405
mp-20517,BPd3,-0.2605684489583328
mp-2052,ScAs,-1.3730763975000002
mp-20521,ScInPt2,-0.9114143012499998
mp-20522,TmAgPb,-0.3342860211111116
mp-20524,Sc2VB2Ir5,-0.7671621226666673
mp-20525,CuSO4,-1.614747180520833
mp-20527,La(FeGe)2,-0.4308524550000001
mp-20529,Ba3NaIr2O9,-2.152465616083333
mp-2053,Nb3Sb,-0.2774172825000001
mp-20532,PrSb2Pd,-0.8454787100000001
mp-20533,SrIn2Pt,-0.6645287616666664
mp-20536,CoSn,-0.117067575833334
mp-20538,HoMgIn,-0.3769075366666665
mp-20539,ScIn3,-0.2983356437499997
mp-2054,TbHg,-0.4857777899999997
mp-20540,YbSbPd,-0.980196970555556
mp-20541,V2P,-0.7881213570238094
mp-20542,Pr(MnGe)2,-0.4592961708620692
mp-20545,Cu3AsS4,-0.5225264365625009
mp-20546,Ba2In2O5,-2.432553580694444
mp-20548,U(Al5Fe)2,-0.2405215357692305
mp-20549,CaPb3,-0.2919105337499998
mp-20553,GdMnSi,-0.5771850382183908
mp-20554,InAgSe2,-0.4183113882552081
mp-20555,NaPb3,-0.13151144375
mp-20557,YSiNi,-0.8173585469444452
mp-20559,Ga3Co,-0.2662617749999993
mp-2056,Ni3Se2,-0.2661281329375001
mp-20562,CeGeAu,-0.7201087916666667
mp-20563,Ba(CoAs)2,-0.6058442139999997
mp-20564,V2Pb3O8,-2.073684540384616
mp-20567,LiGa2Ru,-0.3490252741666664
mp-20568,LaAgGe,-0.6479172744444449
mp-20569,MnSnO3,-2.099144597873034
mp-2057,DyB2,-0.5613169588888892
mp-20571,DySiPt,-1.1928197591666665
mp-20573,DyMgIn,-0.3864381166666671
mp-20575,Nd2InGe2,-0.7400392230000001
mp-20576,Ge2Pt3,-0.4257356190000003
mp-2058,Ni3B,-0.2630836170833337
mp-20580,NiRhF6,-1.9732256121425005
mp-20582,LaIn,-0.5049614575000003
mp-20588,ZrCuSiP,-0.7166663321428572
mp-2059,NbAs,-0.6683551325000003
mp-20591,Yb2InGe2,-0.5987445276666665
mp-20596,U(SiNi)2,-0.57665808
mp-20599,PdPb2,-0.2061481333333326
mp-206,Tb5Si3,-0.6702577643750001
mp-2060,LuTl3,-0.1437461275
mp-20601,NdPb3,-0.3782817649999996
mp-20603,CeTl3,-0.2466518612499997
mp-20606,Tb3In5S12,-1.5053119626250009
mp-20608,Tb2In,-0.34969206
mp-2061,ThTl3,-0.1629435025000001
mp-20610,LuGeRh,-1.0031678399999997
mp-20616,CeNiGe,-0.7410081066666668
mp-20618,Y2Co3Si5,-0.7692224086666662
mp-20619,SbRh,-0.5089822299999991
mp-2062,LaSi2,-0.6634701350000002
mp-20620,Ba2NbInO6,-2.9694973847500004
mp-20622,SiPd3,-0.6097785956249995
mp-20624,La2(Zn2Ge)3,-0.4576262318181815
mp-20626,DyTiGe,-0.690001845
mp-20628,NaIn,-0.1309876175000002
mp-20630,Ho(MnSn)6,-0.1464725429177721
mp-20633,PbO2,-1.3040852208333331
mp-20635,TbIn5Rh,-0.4160504085714284
mp-20637,SmCuPb,-0.4050167011111103
mp-20641,MnCoO3,-1.7139477868730346
mp-20645,TbSiRu,-0.8182784033333329
mp-20646,Sm(MnGe)2,-0.4813609425287353
mp-20647,Nd2ScSi2,-0.7086328129999998
mp-20648,V2C,-0.4725625216666659
mp-20649,Y(MnGe)2,-0.4906020365287361
mp-2065,MnS,-0.8826855038900874
mp-20650,CeCrGe3,-0.4120674839999992
mp-20652,PbF3,-2.4663030521425
mp-20656,DyMn12,-0.0041609581432366
mp-20657,Li2BPd3,-0.4625059911111109
mp-20659,Sr3NiPbO6,-2.3175659852272728
mp-20661,Ti2PbC,-0.5688351062499999
mp-20662,Sn4Pt,-0.2948328019999998
mp-20663,TmCuPb,-0.3571628394444446
mp-20665,CeInCu,-0.3541428538888888
mp-20666,SmIn2Rh,-0.6123378145833334
mp-20668,Dy(MnGe)6,-0.3229987506100794
mp-20669,Ca2In,-0.3663557425000003
mp-2067,ThGa2,-0.6386387250000004
mp-20671,UCoGe,-0.3376386683333348
mp-20672,Hf3P2,-1.1531512494285707
mp-20675,HoSiRh,-1.0694429950000004
mp-20676,ErNiGe,-0.8122458658333329
mp-20677,Gd(CuSi)2,-0.5988306719999997
mp-20678,NaIn(WO4)2,-2.179545726666666
mp-2068,RhF3,-1.8654585346425
mp-20680,Ce4Sb3,-0.9244667400000008
mp-20683,Cu3Se2,-0.1327547949375002
mp-20685,Cr3Ge,-0.08831406
mp-20686,Ho2In,-0.3454928100000002
mp-20687,Sr2LuRuO6,-2.912846521583333
mp-20689,Nb3B2,-0.6281908893333323
mp-20690,NdFeSi,-0.5736488966666661
mp-20694,K2Pb2O3,-1.5739722571071428
mp-20695,Zr3In,-0.2421159650000008
mp-20697,ZrNiSb,-0.6373041033333339
mp-20698,LiCoAs,-0.5030851805555555
mp-20699,YMnO3,-3.0248004800397
mp-2070,CoS2,-0.7736200029166677
mp-20705,U2SnRu2,-0.3057519240000005
mp-20708,In2Ni3S2,-0.5967659351785721
mp-2071,Zn3P2,-0.1884775619285715
mp-20710,CeSiNi,-0.7453826666666666
mp-20711,Fe3Ge,-0.105843815
mp-20714,FeSb2,-0.0154754350000002
mp-20715,Pr2InGe2,-0.7362561599999999
mp-20716,PbSeO3,-1.46492077421875
mp-20717,CrAs,-0.1914189837500002
mp-2072,KTe,-0.8387971327499999
mp-20722,CeFeGe3,-0.5085764869999991
mp-20723,Ca2PbAu2,-0.7034894299999997
mp-20724,Mg2Pb,-0.0442092588888887
mp-20725,PbO2,-1.3098578625
mp-20726,SrCaSn,-0.6832546397222222
mp-20727,Sb2PbO6,-1.9104855608333329
mp-20729,LaIn3,-0.47596348125
mp-20730,HfCo2Sn,-0.3597613949999996
mp-20731,In2HgSe4,-0.4544749727678575
mp-20733,ErSiIr,-1.093592584166667
mp-20735,Ce3Sn,-0.4152094312500001
mp-20739,DyGePt,-1.1333383899999998
mp-2074,Li3Sb,-0.6371586937500004
mp-20740,Tl4Te3Pb,-0.3307544843749999
mp-20741,ReO3,-2.144746946562501
mp-20743,LaInPd2,-0.80323510875
mp-20744,ZrInNi2,-0.4058747800000004
mp-20746,YbIn2Au,-0.555893822916667
mp-20748,Dy4In(NiGe2)2,-0.7793348845454546
mp-20752,Ce(Sn3Ru2)2,-0.3579037486363642
mp-20753,CeCoC2,-0.3025824462499997
mp-20756,LaTiGe,-0.6178683450000003
mp-20758,Cr2CoO4,-2.182450904285716
mp-2076,ZrSe2,-1.3288945682291662
mp-20761,LaCoGe,-0.6054843499999999
mp-2077,DyMg,-0.0813398766666666
mp-20774,NdCuSn,-0.5931224816666667
mp-20775,CeDyS3,-2.450357501875001
mp-20777,SmCoGe,-0.602776661944444
mp-20778,Dy2Be2GeO7,-3.297744164895834
mp-2078,TiCu,-0.1356900274999999
mp-20780,Tb(MnSn)6,-0.1479212629177711
mp-20782,LiInTe2,-0.6277398841666666
mp-20784,Ta3PbS6,-1.4424161823750012
mp-20785,Nd(FeGe)2,-0.4381211820000004
mp-20786,Dy3In,-0.2607710100000009
mp-20789,SmInRh,-0.7310020955555545
mp-2079,Rb2P3,-0.4325843031428569
mp-20790,InPS4,-0.8024850735119049
mp-20792,Ca2InPd2,-0.7294141799999998
mp-20794,Sr2NiWO6,-2.5609082630833333
mp-20799,Er2ReC2,-0.4493999740000006
mp-208,GeIr,-0.3308262237499999
mp-2080,SrBe13,-0.050746360476191
mp-20800,ZrIn2,-0.2672575116666671
mp-20801,LiIn2Pd,-0.4513224766666668
mp-20803,USbAs,-0.506511383333334
mp-20804,Rb(InAu2)2,-0.2522493753571427
mp-20805,PdPbF4,-2.1100435507933333
mp-20806,Gd(CuGe)2,-0.4763888100000003
mp-20813,Ba2MnReO6,-2.6485473423115176
mp-20817,GePtSe,-0.5530031857812503
mp-20819,ErGePd2,-0.9184217324999996
mp-2082,PIr2,-0.4112624561904757
mp-20820,Pb(NO3)2,-1.1645708985844443
mp-20826,CuTe,-0.0659815225
mp-2083,Sn2Ir,-0.31192921
mp-20831,Gd4Sb3,-1.0604208364285728
mp-20832,Zn(InTe2)2,-0.3748224521428572
mp-20834,CeSnPt,-0.9883487349999994
mp-20835,CeSnIr,-0.8590062461111114
mp-20836,Nd(NiAs)2,-0.8265303690000003
mp-20837,Gd(MnGe)2,-0.476641105862069
mp-20838,CaIn4Ir,-0.3332753333333335
mp-2084,Si5Ir3,-0.6314840684375005
mp-20840,MnCo2Sn,-0.1251562924137932
mp-20841,Ba2CaIrO6,-2.547150007249999
mp-20843,Sr2InPd2,-0.6684242686666664
mp-20844,Dy3(CuSn)4,-0.5149832627272727
mp-20845,Dy2Sn2O7,-3.042248230795455
mp-20846,CaIn2Ir,-0.4409767196874998
mp-20847,Ti5Sn3,-0.3548485743749996
mp-20848,TmIn,-0.4041690816666667
mp-20849,Pd3Pb,-0.30210267
mp-20854,NiPbF6,-2.2580755833925004
mp-20857,CoB,-0.4020782191666674
mp-20859,DyCuSb2,-0.6025060187500006
mp-20862,CoSe2,-0.2955744748958331
mp-20865,YCuPb,-0.4049459661111108
mp-20869,GdTiGe,-0.6652288783333328
mp-20870,Dy2InPd2,-0.8763184270000004
mp-20875,TbInRh,-0.7565745999999997
mp-20877,NbCoB2,-0.6093070466666664
mp-2088,CeAl2,-0.4616815216666665
mp-20880,NdAgPb,-0.4571177311111108
mp-20881,LaNiBN,-1.0496835476783335
mp-20882,CeBO3,-3.412489243916666
mp-20886,CeZnSn,-0.5657340966666666
mp-20887,VSn2,-0.0668090716666659
mp-20888,TmGeRu,-0.7392681594444449
mp-2089,ZrTe3,-0.7166436912499998
mp-20892,ZrFeP,-1.052491427857143
mp-20896,TmInNi4,-0.4087109188888884
mp-20898,DyInAg2,-0.3688754641666669
mp-209,Er2Se3,-1.8747071134062487
mp-2090,FeCo,-0.0682856725
mp-20902,InAg(PSe3)2,-0.2220363839538691
mp-20903,PrIn3,-0.4658225962500002
mp-20905,OsS2,-0.7991149554166661
mp-20906,HoCoC,-0.3280449916666666
mp-20907,La2InRh2,-0.7340292509999997
mp-20908,Ce(BC)2,-0.4337138143333334
mp-20909,La3In,-0.2944864537499994
mp-2091,V3B2,-0.7236239363333326
mp-20910,LaGe3Ir,-0.667354662999999
mp-20911,LaIn5Ir,-0.4042362149999999
mp-20913,UGeS,-1.124466137708333
mp-20914,NdIn2Ir,-0.5302963725000005
mp-20916,V5Ge3,-0.3137122862499995
mp-20917,U2Fe3Ge,-0.2679525266666663
mp-20918,ErTiSi,-0.6650438816666657
mp-20919,Rb3CrF7,-2.9146230987118185
mp-2092,CePd3,-0.8347497937499995
mp-20920,TbIn3,-0.4202193849999998
mp-20921,Ba3MnNb2O9,-3.137521392457678
mp-20924,U(FeSi)2,-0.5235257099999984
mp-20928,Sb2Ru,-0.2538095766666674
mp-20930,InCuO2,-1.4921791481250004
mp-20932,NbNiP,-0.8359210178571436
mp-20933,Ce(CoGe)2,-0.527444417000001
mp-20937,Cr3C2,-0.1002713424999996
mp-20938,RbIn5S8,-1.031033729464286
mp-20939,PrPb3,-0.3914747087499997
mp-20941,UIn3,-0.0061604099999996
mp-20944,Sr2PbO4,-2.475586876190476
mp-20947,CaRuO3,-2.223705903250001
mp-20948,NbNiP2,-0.7305028555357147
mp-20949,MnSiNi,-0.4926345540517237
mp-2095,Rb2Te3,-0.705433725
mp-20952,TiNiSb,-0.493054258333333
mp-20954,DyTiSi,-0.6527148866666662
mp-20956,Gd(SiNi)2,-0.8387288459999993
mp-20959,Ce2InGe2,-0.6387857480000001
mp-2096,YbMg2,-0.0866510186111109
mp-20964,La2NiIrO6,-2.53556605425
mp-20965,GdCd2,-0.3327916133333328
mp-20968,KFe(SO4)2,-2.1559283009791668
mp-2097,SnO,-1.645986555625
mp-20971,SnPt3,-0.3813153924999994
mp-20972,YbIn5Co,-0.201750310238095
mp-20973,Ce2S3,-2.4247410218750005
mp-20975,CeIn5Ir,-0.3824312307142854
mp-20979,TmMgIn,-0.3524454066666666
mp-20980,NaNdTiO4,-3.3482444442857147
mp-20982,K3Cu2F7,-2.475920404360833
mp-20984,Ce3In,-0.2010381037500002
mp-20985,TaPbS2,-1.2030489028125002
mp-20987,YZnSn,-0.612350823611111
mp-20990,Pr3InN,-0.903275003476
mp-20991,BaPbO3,-2.11519839375
mp-20992,Ce3InC,-0.3232610090000009
mp-20996,DyIn5Rh,-0.4063399700000002
mp-20998,LiCaPb,-0.4766479472222222
mp-20999,La3InN,-0.9505684154759996
mp-210,BaLi4,-0.0007396360000001
mp-21000,Dy(MnGe)2,-0.4861606118620699
mp-21001,Y(GeRu)2,-0.6137476206666677
mp-21002,LaIn2Rh,-0.6578197437500002
mp-21003,Y2ReC2,-0.4199956913333352
mp-21005,GdIn,-0.4771390199999992
mp-21007,SmSnPt,-1.0730579744444446
mp-21008,Ni3Ge,-0.2910633775000004
mp-21010,PrSnRu,-0.5062655866666669
mp-21014,DySnPd2,-0.879669354999999
mp-21015,HoCuSb2,-0.5860463887499998
mp-21017,Y3PbC,-0.5706645819999991
mp-2102,PrGe,-0.834915165
mp-21022,Nd3InN,-0.9362207344760008
mp-21023,Ti3SnC2,-0.7851426874999999
mp-21024,SrIn2Pd,-0.5976369466666664
mp-21026,Li2InPt,-0.5682517358333334
mp-21027,CaIn2Pt,-0.6888339325000001
mp-21029,Li2InPd,-0.4959735108333332
mp-2103,CuAu3,-0.0174475999999996
mp-21030,Ti3Sn,-0.3016715987499996
mp-21032,BaIn2Pt,-0.6281386750000006
mp-21033,La(GePd)2,-0.8180631169999998
mp-21035,Sc3PbC,-0.6760895089999991
mp-2104,UAs,-0.7211075950000012
mp-21041,Tb(FeP3)4,-0.5897237536974792
mp-21044,NdGeRh,-0.9010836108333334
mp-21048,CrP,-0.5386692030357141
mp-21049,GdMg2,-0.0889080088888896
mp-2105,Hf3Si2,-0.7992248819999986
mp-21050,UFe2,-0.0687849500000001
mp-21052,Tb2InPd2,-0.8706817050000005
mp-21053,U(FeP3)4,-0.5461486501680672
mp-21054,PrSnPd,-0.909657689444444
mp-21061,GdSbPd,-1.0890953200000009
mp-21066,TaMnP,-0.7685782794088686
mp-21067,ScInCu2,-0.3127289862499998
mp-21068,CaIn2,-0.426803435
mp-21069,YSiRu,-0.8274789186111112
mp-21073,HoGeIr,-0.9450319483333338
mp-21074,Cr2HgO4,-1.899678422142857
mp-21075,HfC,-0.9398239650000004
mp-21077,LaNiGe2,-0.7803016387500001
mp-21078,Fe3Ge,-0.0972895337499997
mp-21079,Tb(GeRu)2,-0.6157852779999999
mp-2108,Ti5Si3,-0.7710286262499988
mp-21081,ScNiB4,-0.5651592588888891
mp-21082,Dy(GeRu)2,-0.60977137
mp-21084,In6Ga2PtO8,-1.7846658588235291
mp-21093,SrPb,-0.5434219758333332
mp-21097,KLaGeSe4,-1.1958544296249995
mp-21099,K2Pb(SO4)2,-2.232736474019231
mp-21100,CrBPbO4,-2.3368409226190474
mp-21101,U(SiPt)2,-0.7065750089999995
mp-21103,UPdSe3,-0.8176214144062499
mp-21104,Hf5Sn3,-0.386626483125001
mp-21108,U6Fe,-0.0049011542857146
mp-21111,NdSnPt,-1.0510830755555556
mp-21113,Y(FeGe)2,-0.4623194466666661
mp-21115,CeSi,-0.6457750887499998
mp-21119,CeNiSn,-0.5973396949999993
mp-21122,NdSb2Pd,-0.842842385
mp-21124,SrIn4Pt,-0.4834490344444446
mp-21126,V2PbO6,-2.217578343611112
mp-21129,Sr2Cu2O5,-1.9519390832870367
mp-21134,K(InAu2)2,-0.274283747571429
mp-21135,Pr3InO,-1.52421070125
mp-21136,Ce3Ni2B2N3,-1.239202169880666
mp-21137,Ca2PbO4,-2.5615395278571422
mp-21138,MoPb2O5,-1.8816906164062503
mp-2114,YN,-1.8790556178566664
mp-21141,Fe2CuGe2,-0.0567164479999995
mp-21144,TbCoGe,-0.6531358808333335
mp-21145,SrFeO2,-2.4193832647916667
mp-21153,ErGeIr,-0.9526489308333328
mp-21156,TbPb3,-0.2973694025000002
mp-21157,TmNiGe,-0.8167259244444457
mp-21158,CeAlPd,-0.7836836383333332
mp-2116,ZrMn2,-0.1876211164367826
mp-21162,SrPb3,-0.3230200441666664
mp-21164,SrGePt,-0.8952426397222221
mp-21165,PdSe,-0.326122728046875
mp-21166,SrCaPb,-0.584686743055555
mp-21167,Ni2P,-0.4775347161904761
mp-21169,Ce2NiB10,-0.5774664244871789
mp-2117,TbN,-1.847337411189999
mp-21170,KPb2,-0.1742165818333335
mp-21171,MnGaCo2,-0.2414379449137929
mp-21175,TaGaNi2,-0.3505404350000001
mp-21176,KCeGeSe4,-1.1152580460535708
mp-21177,TmIn3,-0.3586331308333337
mp-21178,U2Co3Si5,-0.5424220869999999
mp-21179,NiWO4,-1.833010275833333
mp-21183,Ba(InTe2)2,-0.77868397
mp-21188,CeNi,-0.3131740125000002
mp-21192,GdSi2,-0.5992896666666662
mp-21194,NdGeRu,-0.6707046083333322
mp-21197,NdIn3,-0.4628874949999999
mp-21198,DyAgSn,-0.5992263527777778
mp-21199,Na3(GePt)4,-0.5078960231818176
mp-2120,HoAg2,-0.3275263722222223
mp-21201,LaGa3Pd2,-0.7710455024999998
mp-21202,Sm3In,-0.2694324149999998
mp-21203,TbCoSi,-0.7384990483333347
mp-21205,Tm2InPd2,-0.8875931243333334
mp-21207,LaInNi2,-0.4166638800000006
mp-21209,Cu3(AsO4)2,-1.3189007853846146
mp-2121,ScAl3,-0.4549311287499993
mp-21213,NaCr(GeO3)2,-2.2227543452499985
mp-21215,InPd,-0.4971454199999998
mp-21218,La(GePt)2,-0.962121106
mp-21220,CaIn4Rh,-0.3987535391666667
mp-21221,Pr(FeGe)2,-0.4279343170000004
mp-21222,Sm2InGe2,-0.738430963333333
mp-21223,YbIn2Ni,-0.4232233091666666
mp-21224,Sm(GeRu)2,-0.608357410666666
mp-21227,U3TiSb5,-0.400026615555556
mp-21228,SrCuSeF,-2.151118093800104
mp-2123,Nb3Au2,-0.1474880560000002
mp-21232,TmInRh,-0.7627600855555549
mp-21233,Ti3InN,-0.935126766476
mp-21235,Mn2VGa,-0.2302546398275868
mp-21236,BaPPt,-1.0802559686904754
mp-21237,CoGe,-0.2201801449999996
mp-21238,ThSi,-0.6948930575000007
mp-21240,Gd(SiRh)2,-1.1259443619999998
mp-21242,LiYbPb,-0.4718074644444445
mp-21245,CePt,-1.0822940874999991
mp-21246,Ba2Pb,-0.5412978616666667
mp-21248,NbSiIr,-0.8599421583333337
mp-2125,TeO2,-1.5048980229166666
mp-21251,UGa5Ni,-0.3203625328571431
mp-21252,GdCo3B2,-0.4659559252777766
mp-21256,Mn7C3,-0.0683746447586202
mp-2126,HfIr3,-0.8170688475000016
mp-21266,BPPbO5,-2.556452808311012
mp-21267,Yb2InPd2,-0.7961984216666664
mp-2127,Pr3Te4,-1.4443718621428567
mp-21272,ErNiSb,-0.9036788850000004
mp-21276,PbS,-0.8647567115625003
mp-2128,Sn4Pd,-0.2513314390000005
mp-21283,Cs2PbO3,-1.548035730768678
mp-21287,Gd(SiAg)2,-0.4145663873333326
mp-21288,La2InGe2,-0.7684422310000002
mp-21289,TiZn3,-0.2004698062499996
mp-21290,HoInPt,-0.9945842655555556
mp-21293,Li3In2,-0.2976338399999999
mp-21294,Y2In,-0.3870823688888893
mp-21295,Nd2In,-0.3384336699999999
mp-21296,PtPb4,-0.1252152459999997
mp-21297,LiSn4Ru,-0.267805488611111
mp-213,CaPd,-0.6794142125000002
mp-2130,LuNi2,-0.5182305166666659
mp-21300,Yb5Ge4,-0.661482072592593
mp-21301,ScInNi2,-0.4447307562500002
mp-21302,Sr2MnGaO5,-2.6865669750220555
mp-21305,GdNi5,-0.3104183883333332
mp-21306,TiCoSi,-0.8139239899999993
mp-21308,TbInPd,-0.816494804444445
mp-2131,SrN6,-0.5179165115638084
mp-21310,TbGeRu,-0.7158299300000005
mp-21312,Ca(Ni2B)6,-0.3544405497368426
mp-21313,Mn3GaC,-0.1206965787931039
mp-21316,TaSiIr,-0.820828515
mp-21317,BaEr2CoO5,-3.20479519152778
mp-21323,DyGeIr,-0.9376819774999988
mp-2133,ZnO,-1.7986594431249996
mp-21331,K2RbGdV2O8,-2.721488923107143
mp-21332,LiGdO2,-3.2214895241666675
mp-21333,Cd(FeO2)2,-1.769969885
mp-21336,TaFeP,-0.8399676586904761
mp-21338,U(Mo3S4)2,-1.1568328883333323
mp-21339,CeCoGe,-0.5474869133333335
mp-2134,ErAl3,-0.4192928875000001
mp-21340,HfGePt,-0.9043989933333332
mp-21342,V3Sn,-0.0705883562499991
mp-21343,CeB6,-0.5142810792857142
mp-21347,CoBMo,-0.438067901944444
mp-21350,Pr2MgGe2,-0.7561240676666671
mp-21351,Dy2In,-0.3477594633333337
mp-21352,NaIn2Au,-0.29124523125
mp-21355,Cr2TeO6,-2.035652158055555
mp-21357,U2Fe2Sn,-0.1547722710000002
mp-21359,SbRh2,-0.3773285950000004
mp-2136,Sb2O3,-1.7609088507500004
mp-21363,TbFeSi,-0.6323856733333327
mp-21364,HoCuAs2,-0.8111317299999996
mp-21365,InSbS3,-0.796258732375
mp-21366,Yb(GeRu)2,-0.5912861253333332
mp-21367,LaIn2Pd,-0.6651413075000003
mp-2137,Mg2Ni,-0.1755213566666668
mp-21371,VCoSi,-0.6007078566666664
mp-21372,CePRuO,-2.2235906262053584
mp-21374,Cd(InTe2)2,-0.3774361885714289
mp-21375,CeMgGa,-0.3663231749999995
mp-21377,Sm,0.0096154666666672
mp-21379,SmInIr,-0.6684337566666664
mp-21381,ThPb3,-0.2368779625000003
mp-21385,In3Ni2,-0.1508090020000004
mp-21387,CeInPd,-0.7219841361111108
mp-2139,BaGe2,-0.5339353512499999
mp-21390,La2InCuSe5,-1.3140709749131945
mp-21393,Ce3Al,-0.1640415687500001
mp-21395,CrO2,-2.0618038475
mp-21398,HoIn5Co,-0.223364893571429
mp-214,ZrRu,-0.6428069350000012
mp-21400,Ga3Pt2,-0.5969166259999994
mp-21401,TbSnPd,-0.9300938308333327
mp-21402,PrCr2Si2C,-0.4161109158333336
mp-21408,Gd(SiOs)2,-0.7218473219999992
mp-21412,Ce3Tl,-0.1272131137499998
mp-21413,RbMnP,-0.3889294219088673
mp-21414,LaIn5Co,-0.2721315271428577
mp-21415,Dy(NiGe)2,-0.6486106780000007
mp-2142,Te2Os,-0.0721428241666662
mp-21420,Nd(MnGe)2,-0.4697628558620693
mp-21422,YCoC,-0.3082907377777779
mp-21424,TbNiGe,-0.7920604074999993
mp-21426,Dy(FeGe)2,-0.4592832560000005
mp-21427,GdPd3,-0.8575826674999991
mp-21429,U(CoSi)2,-0.5686413959999996
mp-21430,YbPb3,-0.3149471641666665
mp-21431,HoIn3,-0.3915143900000002
mp-21432,LaPb3,-0.4472649562499997
mp-21434,CoCO3,-1.7278419347500005
mp-21436,GdCuSn,-0.602348354999999
mp-21437,Fe2TeO6,-1.755341196388888
mp-21438,LaInAu,-0.7545497272222224
mp-21441,CeSiIr,-0.9140454225000004
mp-21443,Ce2Pd2Pb,-0.7400947709999997
mp-21446,BaPb3,-0.3726189625000001
mp-21449,NbCoP,-0.8826447778571449
mp-21450,Nd2InPd2,-0.808478934
mp-21452,Pb3O4,-1.4553577857142852
mp-21453,PrSnPt,-1.0279139199999996
mp-21456,SmMgIn,-0.4096420533333334
mp-21457,Ti3Cu3O,-0.9383980594642846
mp-21459,InAgS2,-0.7552420980208332
mp-21461,Rb2PbO3,-1.5634575447916668
mp-21463,PrTiGe,-0.6168954999999995
mp-21464,CoReB,-0.2746168494444442
mp-21467,TiCo2Sn,-0.3883785699999995
mp-2147,SrGe,-0.6232671358333333
mp-21470,Ca2MnGaO5,-2.728576850762796
mp-21471,LiFeAs,-0.4418207338888891
mp-21477,RbIn4,-0.1125662035000001
mp-21478,U(CuP)2,-0.5506049894285716
mp-21479,LaIn5Rh,-0.4604831492857149
mp-21483,Nd3In,-0.2718525925000001
mp-21486,Tm2In,-0.3372839138888892
mp-21489,Rb2PbO3,-1.5612083056250003
mp-21490,CeSnPd,-0.8395943883333334
mp-21491,Y3GaCo3,-0.3404021128571425
mp-21492,CeInNi,-0.4490705216666665
mp-21495,CrFeP,-0.5191059428571414
mp-21497,Pb2SO5,-1.9274900230468752
mp-21499,YbInPd,-0.7740290977777775
mp-215,YSb,-1.1593358391666673
mp-2150,BaTe2,-1.1931125349999998
mp-21500,Yb2InCu2,-0.3652388736666669
mp-21503,YMgIn,-0.4142726100000007
mp-21504,V4GaSe8,-0.732156337596154
mp-21505,YAgPb,-0.4075541388888892
mp-21508,Y2Pd2Pb,-0.8417605003333328
mp-21509,LaMgGa,-0.4872447749999994
mp-2151,Mg17Al12,-0.0289631185057469
mp-21510,K2NaInAs2,-0.4899387285
mp-21511,K2NaInP2,-0.4178513280238096
mp-21518,CeMgTl,-0.2139956083333333
mp-2152,YNi5,-0.3190378755555561
mp-21520,NaCeP2O7,-3.07194616349026