material_id,pretty_formula,formation_energy_per_atom
mp-1202922,Tb3Rh2,-0.7560673188571424
mp-1202948,Ba3(AlP2)2,-0.964579681309524
mp-1202951,BaYb2Si3O10,-3.207764557864584
mp-1202969,Tc3Se4I,-0.5387959524218742
mp-1202972,Er2Nb3Ge4,-0.7413873463888889
mp-1202976,Nd(In2Pd)2,-0.5704582698571431
mp-1202980,Zr2Te4Cl2O11,-2.2118268321194736
mp-1202982,Gd3Co4Ge13,-0.4210792780000005
mp-1202988,Rb2In3F11,-2.9373291550368754
mp-1202990,Dy(BRu)4,-0.4975142581481467
mp-1202993,Cu3P4Pb3O16,-2.123994010357144
mp-1203000,NdH11S3O16,-1.8838059181998383
mp-1203004,Li9Mg3P4O16F3,-2.953195352510163
mp-1203009,CdTe(Pb3O5)2,-1.5297670023611118
mp-1203015,TaBr5,-0.9430483872222224
mp-1203016,Ba3Al3As5,-0.8877792789393947
mp-1203018,Sr4Li2Ta2Al2N8O,-1.5072232508047376
mp-1203023,NaZn2(BH4)5,-0.2152754599666662
mp-1203026,CeGa8Pd3,-0.553416262361111
mp-1203027,Ga40AgMo8,-0.144514123333333
mp-1203029,U2B6W,-0.5501755486111111
mp-1203034,MgH16(IO4)2,-1.3760716918982714
mp-1203037,KTi2H2F11,-3.2453210127081253
mp-1203040,B2Pb4O7,-2.054659832916668
mp-1203041,YbCo3P2,-0.8467429103571426
mp-1203042,Cs6Dy21Te34Cl,-1.448210304045907
mp-1203045,Co9Te5(PbO5)6,-1.54151445125
mp-1203058,H6C(NO)2,-0.9667921383163632
mp-1203059,LiAs3H2O9,-1.6927042943437782
mp-1203061,TcF4,-2.348027325952
mp-1203069,WO3,-2.171178556250001
mp-1203071,Yb3Co4Ge13,-0.3780628257500005
mp-1203076,Tm4Ga21Ni10,-0.5008841169523813
mp-1203080,K2AlSO4F3,-2.9577372056995457
mp-1203081,Cs2Te4O9,-1.6864930816408044
mp-1203085,Na3Y(SiO3)3,-3.11717744516927
mp-1203087,Ga4Hg11(PCl4)4,-0.978587225041306
mp-1203089,K2Cr2AsHO10,-1.808998141486666
mp-1203090,HfMnSi2,-0.6587705144971258
mp-1203103,Nd3Ga2,-0.4784284172500001
mp-1203106,Ga7Sb7(Te4Cl13)2,-1.1370023592658332
mp-1203111,Dy3Ge13Ir4,-0.5197957952500005
mp-1203117,InP3Pb2O11,-2.459714111586134
mp-1203122,Ce2ZrS5,-2.2671179682031246
mp-1203123,BaLa2WO7,-3.2927185121590923
mp-1203135,CuTe2PbO7,-1.415895409431819
mp-1203138,Sc3B5O12,-3.288878641583333
mp-1203141,Lu3Ge13Os4,-0.3128948805
mp-1203144,Cs3LaN18,-0.4288254159833232
mp-1203145,K3Yb(SO4)3,-2.430624180791667
mp-1203150,Tm6Al43Mo4,-0.3076311086792455
mp-1203152,Lu20Os5I24,-1.091677585714286
mp-1203165,MgH8(ClO2)2,-1.5769641674208883
mp-1203166,Er2Mo3H2Se2O17,-2.21843960012221
mp-1203178,Tb4Ga21Ni10,-0.5092487068571432
mp-1203179,PbI2,-0.6635033055555558
mp-1203188,Ca2AsH4F13,-2.7950597368725
mp-1203192,Ga2CuSe3O10,-1.508769312158203
mp-1203195,Mg2CdH24(BrO2)6,-1.3874486506343702
mp-1203201,Er3Ge13Os4,-0.3322232772500001
mp-1203208,Cs3Hf2CuTe10,-0.7260526336745685
mp-1203210,ZnTeH12Se3N4,-0.510779167737679
mp-1203212,Yb(NO3)3,-1.3656494742351282
mp-1203224,Pr2HfS5,-2.3069337500781257
mp-1203227,Gd4C2Cl3,-1.522849938864444
mp-1203228,La3Rh4Pb13,-0.3375272942500004
mp-1203235,Cu2PO5,-1.695090964040178
mp-1203240,KSmH2S2O9,-2.4035167767382224
mp-1203247,Gd(NO3)3,-1.5458033975684615
mp-1203253,S7N,-0.3928019183443751
mp-1203256,Zr14As9,-1.0432638226086954
mp-1203265,YCo3P2,-0.9271796909126996
mp-1203269,Ho11Sn10,-0.7289481654761903
mp-1203279,Pr4InSbS9,-1.9109721747083328
mp-1203280,U(Zn10Ir)2,-0.1577047932608695
mp-1203285,SnH12C4(SCl2)2,-0.5991971396839127
mp-1203289,CsGeSbO5,-2.098328125913256
mp-1203296,AlH12(NO5)3,-1.4021269885267738
mp-1203297,Sc5IrCl9,-2.2394180752893336
mp-1203298,Ba2InSbTe5,-0.932675243055555
mp-1203300,Y5Zr3(Ni4As3)4,-0.8330072596296295
mp-1203303,CsCoPO4,-2.411257983250352
mp-1203307,Rb6U2(Cu4S5)3,-1.1241744403392862
mp-1203312,La21Mn8Sb7C12,-0.6077560689008621
mp-1203316,Ce2Te7Cl2O17,-1.9996607918846423
mp-1203317,Ho5(Co2Si7)2,-0.6594606489130423
mp-1203324,Zr3Ge,-0.5483089334375011
mp-1203325,Sm2Ge(BO4)2,-3.19445446525641
mp-1203326,Ga2Hg3Cl8,-1.2565944610446154
mp-1203328,Ba4P3HF24,-3.399237556027946
mp-1203331,Hf2(NiAs)3,-0.7049697775000006
mp-1203338,Ga40SnMo8,-0.1362376083673463
mp-1203346,PW5O17,-2.2588660851009306
mp-1203348,ThH2SO6,-2.5757504757865
mp-1203362,Ca9Mg(PO4)7,-3.258470750185185
mp-1203368,Zn3As2,-0.1461886035000002
mp-1203369,Ce5P12Ru19,-0.8858661757738102
mp-1203372,Sc5(CoSn3)6,-0.3264265846551725
mp-1203373,Ge22Rh17,-0.4927128178205122
mp-1203380,LiBP2Pb4O11,-2.3495198519548866
mp-1203382,Sn2W3Cl14,-1.3195574918757895
mp-1203385,Lu10Mn13C18,-0.3478982701345674
mp-1203386,K2H3IrNCl5,-1.3310744100449998
mp-1203387,Ba2GaSbSe5,-1.2148660818576391
mp-1203391,K4Sr(SiO3)3,-2.9256823179362743
mp-1203399,SmCd11,-0.1335192669444443
mp-1203404,Ag2Mo(I2O7)2,-0.9837057171031752
mp-1203408,KYb2Cd2Sb3,-0.6493262911041664
mp-1203415,Ba2CaV2CoF14,-3.573500597583
mp-1203416,Sm(Al10Cr)2,-0.1446695675362319
mp-1203422,Na2Cd11,-0.0846057058974357
mp-1203429,Tm2B6Os,-0.704257802962963
mp-1203433,Hg3AsO5,-1.0711384284722232
mp-1203434,Na2Fe2F7,-2.878604472802728
mp-1203438,Mg2H32Ru2Cl10O17,-1.4350960365294705
mp-1203440,LiZnSO4F,-2.2956158123102086
mp-1203443,HfFeGe2,-0.4585585306249993
mp-1203453,TbCo3P2,-0.9265054611904762
mp-1203455,Sm2ThS5,-2.4489944230989584
mp-1203462,NaHoP2O7,-3.126514263035715
mp-1203469,In2Te9RuCl8,-0.7921979720540001
mp-1203477,Ce2SiPd14,-0.5814611908823534
mp-1203480,Rb7DyFe6(P4O17)2,-2.6015557927423467
mp-1203495,Tb2Re3Si5,-0.5961829297500003
mp-1203500,Ca(GaS2)2,-1.4938395239285716
mp-1203502,KTi4Cl11,-2.02071699774125
mp-1203511,Hg3H6Pt(NCl4)2,-0.8639127941279998
mp-1203522,Cs2HgCl4,-1.7589369409145814
mp-1203526,Cd4As2Br3,-0.5155046175
mp-1203528,K4BaV6O18,-2.5105626804999988
mp-1203532,K4Ag18Te11,-0.295871272030303
mp-1203541,KGa(SeO3)2,-1.71362152876875
mp-1203550,Tm11Ge10,-0.8336852993650791
mp-1203552,Tm2(Ni5B3)3,-0.4240909875641027
mp-1203555,LiBH7N,-0.5039669805219994
mp-1203559,Ba(BH)12,-0.438808272737599
mp-1203560,La15Cd2Rh5,-0.500306216818182
mp-1203567,KV2SeO7,-2.133162430826705
mp-1203568,TiP2(S4Cl)2,-1.0554068672048351
mp-1203572,Er11Ge10,-0.8412589911904759
mp-1203584,Ba2GaBiSe5,-1.2316228246354166
mp-1203586,Tb5RhBr9,-1.6678850469999995
mp-1203588,Na3B3(HO2)4,-2.224142407748889
mp-1203589,Sr5Nb5O17,-3.289705321651234
mp-1203591,TcI4,0.0078019000000004
mp-1203593,Cs4Zr6BBr17,-1.5570264044663389
mp-1203598,CsMoP2HO9,-2.392774757674564
mp-1203605,Hf21Re25,-0.4112772955434806
mp-1203611,Ga2Cu3(SeO3)6,-1.3491870335021552
mp-1203616,Y6Al43Cr4,-0.2717065193396228
mp-1203633,Sm6Al43Cr4,-0.2599550283962263
mp-1203634,Sr6Sn12Pt11,-0.7953021212068959
mp-1203636,BaPr2In2O7,-2.8876552207291675
mp-1203641,V2Pb4(Se2O7)3,-1.6120959203125
mp-1203650,Lu15C19,-0.3709272111764706
mp-1203661,KRb2CrF6,-3.127312335314
mp-1203665,Cs2BaTa6(Br5O)3,-1.5623344555411869
mp-1203677,Ce(Cd10Ni)2,-0.0892725206521741
mp-1203678,La3As2BrO7,-2.9993756737500004
mp-1203697,CuAs7PS7Cl,-0.5091148574239083
mp-1203699,Rb3IO5,-1.501627650694445
mp-1203700,RePO6,-2.2820604820089287
mp-1203703,Tm(NO3)3,-1.55348078378641
mp-1203715,Cs2TiP4O13,-2.83630605206989
mp-1203719,Er3C4,-0.3489281292857137
mp-1203722,La6Co13Sb,-0.2000146097500007
mp-1203732,Lu2Mn3Si5,-0.6146151251465518
mp-1203743,CsLu7Se11,-1.8326411917743308
mp-1203751,Dy2Mo3H2Se2O17,-2.219488511660672
mp-1203755,Cs11Fe10S16O,-1.0941037828550368
mp-1203758,La6InCo13,-0.117365690750001
mp-1203760,Si7Tc4,-0.5737837374999993
mp-1203767,Lu3C4,-0.3809062072857135
mp-1203773,K5In(MoO4)4,-2.2106141565384614
mp-1203774,Rb2TiV3(PO6)3,-2.6975948452116394
mp-1203781,Th(BRu)4,-0.5525918503703701
mp-1203792,Yb4Ga21Ni10,-0.4750689453333328
mp-1203797,Nd13(B2O13)2,-3.598990334089147
mp-1203799,TiPb(S2O7)3,-2.075004179310345
mp-1203800,Na2H4WO6,-1.8324089015946152
mp-1203805,Gd4B4O11F2,-3.5336772737839675
mp-1203806,Ba2GaSbS5,-1.650970943680556
mp-1203812,SF4,-2.153342275327
mp-1203831,Yb3Ge13Rh4,-0.5221611047500005
mp-1203833,Ga31Mo6,-0.135919766621621
mp-1203838,Rb2Ti4H3F21,-3.3388075075283328
mp-1203849,Ga8Sb7Se8Cl29,-1.2073138372748078
mp-1203858,Rb8Mo33S37,-1.1016893768669855
mp-1203864,BP3(PbO4)3,-2.4811834622525057
mp-1203867,CeCo5P3,-0.8130564956349207
mp-1203872,Na2Cu2(B4O7)3,-2.609559921114864
mp-1203875,Zn2Te15(H3N)8,-0.3985138587942858
mp-1203883,LaInCu5,-0.2171188773214279
mp-1203885,InHg6Sb4Br7,-0.3947677618055556
mp-1203887,Tm2(Ni2B)5,-0.4813662319607839
mp-1203892,Cs3Ti3Te11,-0.7437109366937115
mp-1203896,Sn21H14(Cl4O5)4,-1.48877415644845
mp-12039,Gd2Mo2C3,-0.3041070157142859
mp-1203903,Cs4Sr3(PO3)12,-2.7772138930832955
mp-1203906,Cs5Na(W2N5)2,-0.6838555369227592
mp-1203917,Cs3ScCl6,-2.4484554428353102
mp-1203921,LaNi3B,-0.441576575416667
mp-1203928,NbH8N2OF5,-1.8265865631423528
mp-1203930,Sm(NO3)3,-1.5396451300364091
mp-1203931,Tl2CuH12(SeO7)2,-1.2905397392137907
mp-1203952,Rb2MgH12(SO7)2,-1.8371122605007528
mp-1203959,Sc4FeCl5,-1.8394711291299992
mp-1203960,UH6Br2O5,-1.7727787948549998
mp-1203980,Lu11(Ni10C)6,-0.292723557792208
mp-1203990,CrH20N2O6F5,-1.5170481757532348
mp-1203991,K2Pd(S4O13)2,-1.8859684136081083
mp-1203997,Er13Zn58,-0.316616185422535
mp-1204007,Na5H4BrO4,-1.6087272126414285
mp-1204028,Sm6Fe13Bi,-0.1168325514999992
mp-1204033,LaTlGeSe4,-0.9622331336607144
mp-1204035,W15I47,-0.1423866833064514
mp-1204039,CsSb,-0.4366532702155172
mp-1204042,Sm5P12Ru19,-0.8485843202645498
mp-1204043,CoH18CN6ClO3,-0.8382041945483337
mp-1204048,B2H26C8N20Cl2O,-0.6256524038331635
mp-1204059,Fe3Ag7(P2O7)4,-2.057504893193581
mp-1204061,K4As2Se5,-0.8165306217017044
mp-1204071,Ba2Na2SrAl4F20,-3.912137137429885
mp-1204074,NaAuS,-0.8968636106249998
mp-1204084,Ce3Ge13Ru4,-0.4627840612500001
mp-1204089,CsLiU(PS4)2,-1.2494098910313256
mp-12041,DySbPd,-1.0777860316666663
mp-1204118,Hg8Bi3As4Cl13,-0.8806235614540474
mp-1204122,La2SiC(NO2)2,-2.736167478976
mp-1204133,Cs2Th(Si2O5)3,-3.3193777458171687
mp-1204151,Na2CeH2C5O11,-2.0158901727852374
mp-1204159,K2MgP4(HO2)8,-2.2655593939541623
mp-1204182,Ho2Re3Si5,-0.5917645399999998
mp-1204184,Mn5As4(HO2)10,-1.7308995328019443
mp-1204192,Ba2V2Te2O11,-2.425159776102941
mp-1204194,Gd3MoO7,-3.3849332237500005
mp-1204202,Ho6Al43W4,-0.2736585823584913
mp-1204207,Nb10Ge7,-0.4587856288235299
mp-1204208,ThCd11,-0.0895445672222222
mp-1204209,CsHPt2(SO4)4,-1.7561979045437923
mp-1204213,Tb2Nb2S7O30,-2.391493983155488
mp-1204219,Dy3Ir2,-0.8065698995714286
mp-1204230,Sr4Ga2O7,-2.860387807580129
mp-1204240,CaH8(ClO6)2,-1.295084806977391
mp-1204243,Rb4Te8O23,-1.649291568678572
mp-1204245,Pr11Cd45,-0.2913674210714284
mp-1204248,InAgP2O7,-2.2849841901569268
mp-1204251,Ta8CoSe8,-0.653134492867647
mp-1204253,Cu4Se3O10,-1.0919031363694849
mp-1204264,In12Ga4Ir2O15,-1.6597136899621214
mp-1204270,Ba8Ca8Tl7(Cu4O13)3,-1.9787604684966216
mp-1204271,Hf7Tl18Pb2S25,-1.2093036213100965
mp-1204278,Rb2U3P6O25,-3.0171552275744054
mp-1204281,HfGe2Ru,-0.5656587600000004
mp-1204283,Na5Ga7H12S13O6,-1.320825781315465
mp-1204286,SbH36S4N11,-0.581026970076923
mp-1204289,Cs4BiAs3Se7,-0.703094614458692
mp-1204300,Na2Ca2Al6Si9(H8O19)2,-2.689956698019452
mp-1204314,Gd(BO2)3,-3.1845534645625
mp-1204327,NaCe(GaS2)4,-1.4009738492857144
mp-1204344,Ga40CuMo8,-0.1375122608163258
mp-1204347,Cs7Mo8AsO30,-2.1702696209895045
mp-1204352,Y3Ga2,-0.5739977622499992
mp-1204356,SiC,-0.2050521130263151
mp-1204360,PrCo3P2,-0.8246639723015876
mp-1204364,Dy2Nb3Ge4,-0.7431012652777788
mp-1204376,La(Cd10Ni)2,-0.1132398582608696
mp-1204377,TlHg6S4Br5,-0.54605213890625
mp-1204381,Ce2Ni7,-0.3778445075
mp-1204382,Tm10S19,-2.188955796127874
mp-1204383,La5P12Ir19,-0.7884982149404764
mp-1204388,LaMoClO4,-2.7669220013585707
mp-1204392,TiMnGe2,-0.3938187647054588
mp-1204398,CoMoH24N6ClO7,-1.00053071170425
mp-1204402,LiAl(CN2)2,-0.728411610148334
mp-1204407,TmCo3P2,-0.9461882692460324
mp-1204409,Yb6Al43Mo4,-0.2646396451886795
mp-1204412,Mo2PbSe2O11,-1.7071696270898435
mp-1204427,Cu2Bi8Pb6S19,-0.7461037354107142
mp-1204441,Tb11(In3Ge2)2,-0.6591518004761904
mp-1204443,PH18PtC6S3BrF6,-0.9043918137568454
mp-1204444,Ba5Cr3F18,-3.714989129141154
mp-1204449,Cs2ZnI4,-1.182919151313629
mp-1204458,Tm15C19,-0.3545325282352946
mp-1204461,CsVSO6,-2.297111708728448
mp-1204472,Y3Se2ClO8,-2.8104149871748203
mp-1204480,Tl2Ag3(PO4)3,-1.8023874860357136
mp-1204493,NaSr3GdP3O12F,-3.369587330804966
mp-1204495,Tb2Ge(BO4)2,-3.2176450314743588
mp-1204501,CsY(BH4)4,-0.4264145953417139
mp-1204502,Pr(TiAl10)2,-0.2294646236956518
mp-1204517,Er2Fe14Si3,-0.2779705423684205
mp-1204523,Rb6InP3S14,-1.1807928047693454
mp-1204525,K2Sn(S2O7)3,-2.043203226033333
mp-1204533,Mg45Si32(H29O69)2,-2.663739045796557
mp-1204542,CoH15Pd(NCl)5,-0.7824735137962956
mp-1204549,Er4BClO7,-3.75795836175718
mp-1204562,Y2Mo(SeO4)3,-2.2774789979832173
mp-1204585,Ba4NaAl2B8(ClO6)3,-3.088539863859629
mp-1204595,Gd4Si2S3O7,-3.2873662975390623
mp-1204598,Bi6Mo2O15,-1.8605715108152177
mp-12046,Rb3Na(RuO4)2,-1.71638407125
mp-1204608,Tb11(In3Si2)2,-0.5986481154761906
mp-1204612,Ce4CI6N,-1.3547351701983328
mp-1204624,LaP5O14,-2.8510242030178574
mp-1204625,PrCo5P3,-0.75398319202381
mp-1204631,BaP6H16(N2O9)2,-1.8637818832526336
mp-1204635,Dy2(Ni2B)5,-0.4663047795833334
mp-1204645,Dy2ReB6,-0.6268906536111108
mp-1204651,Tb12(ReC3)5,-0.3542264842187492
mp-1204655,SrSbSe3,-0.9608716684895832
mp-1204657,K8Tl10Zn,-0.1360256178421048
mp-1204660,HfCrSi2,-0.6035166097916651
mp-1204668,Na2Lu3Te4(IO4)3,-2.2805420854166667
mp-1204671,Cs3SbH2S4O,-1.279806159980282
mp-1204674,Ni9Te5(PbO5)6,-1.4142364960499991
mp-1204693,Ba18In8(S7F6)3,-2.7314503189545385
mp-12047,K3Na(RuO4)2,-1.716645270285714
mp-1204717,Ca3MnH12S2O17,-2.030016591615862
mp-1204721,Tb3InS6,-2.082785993375
mp-1204723,Er11Cd45,-0.2234279253571427
mp-1204726,Ba3GaS4Br,-2.084844860555556
mp-1204727,Cs3Bi2Cl9,-1.862744392009508
mp-1204728,Tm10Mn13C18,-0.3168075946061127
mp-1204729,Yb6Al43W4,-0.2243310720754715
mp-1204734,V2Pb2Se2O11,-1.823233731966911
mp-1204735,Ho2ReB6,-0.6447220211111104
mp-1204742,Nd2H6Se7O20,-1.6853231695893214
mp-1204762,Cs2Th2P2Se13,-0.9058561249854568
mp-1204772,Co2As2O7,-1.62327378134091
mp-1204773,Ba6Sn7S20,-1.449014696742425
mp-1204779,Al2Bi7Ru(BrCl4)2,-1.100988455804
mp-1204783,Cs3SbS4,-1.2411620173491378
mp-1204784,V2Pb14Cl4O17,-1.7415931528186492
mp-1204785,K3Cd(BO2)5,-2.6205020038508766
mp-1204787,Ho(BRu)4,-0.4996140892592599
mp-1204788,InH12(NF2)3,-1.4925139163736356
mp-1204794,SmH4I3O11,-1.4527801411349115
mp-1204799,Tc2Te5,-0.271351014642857
mp-1204800,Dy3Ge13Os4,-0.3413894315
mp-1204805,Ga40GeMo8,-0.1362760589795923
mp-1204807,Er2Re3Si5,-0.5887585347499993
mp-1204813,DyCo5P3,-0.8399998411904769
mp-1204821,Tl2ZnH12(SeO7)2,-1.3616600772783067
mp-1204832,Ga3Ni27B14,-0.3202026960606048
mp-1204834,Pr11C11Cl7,-1.1055229167351732
mp-1204836,RbTa3(TeO6)2,-2.692613717777778
mp-1204867,Ho11(Ni10C)6,-0.2803439989610393
mp-1204878,Nb10Se40I3,-0.5622354007311321
mp-1204879,Sr4V2(Se2O7)3,-2.133925028696338
mp-1204889,Yb2(Ni2B)5,-0.4323765949264702
mp-12049,Nd2Sb,-0.8489050883333332
mp-1204900,Sc4FeBr5,-1.2821730206249995
mp-1204902,Nd5Pb4,-0.5744667130555554
mp-1204913,Cs2V2H2O7,-2.1841180105270817
mp-1204933,K2LaTa5O15,-3.379404735858695
mp-1204935,Dy2Nb2S7O30,-2.390383554740853
mp-1204948,La11Hg45,-0.3400596549107142
mp-1204955,K3Fe6F19,-2.863568082111072
mp-1204963,Pr(Al10V)2,-0.1971079517391305
mp-1204970,Yb13Zn58,-0.2863377467136152
mp-1204974,Sm(Cd10Pd)2,-0.2031124836231883
mp-1204981,Cs3Zr2P5S18,-1.2275515536750097
mp-1204994,H4Pd(NO4)2,-1.061226000616
mp-1205000,Nd11Cd45,-0.2869886302678571
mp-1205011,SrH6Cl2O11,-1.2864078097453322
mp-1205012,Ca10Si3Pt7,-0.9236775769999994
mp-1205018,BaIn2(P2O7)2,-2.723097643656464
mp-1205021,Pr5Ir3,-0.5839779946874994
mp-1205023,Sr4Mn2Bi4O13,-2.302752312789001
mp-1205030,Sm5(Sn5Rh2)2,-0.7362193603508767
mp-1205037,Dy11(In3Si2)2,-0.5966886330952386
mp-1205044,Gd2Si4CN6,-1.360022725713846
mp-1205061,Zr(TlSe)4,-0.7283972037083332
mp-1205067,KNa4FeO4,-1.6932353340500002
mp-1205070,ScMnSi2,-0.6460657305387928
mp-1205074,K3Er(SO4)3,-2.580010220703947
mp-1205075,KBa2Cd2Sb3,-0.7070115547499998
mp-1205078,LiCe(PO3)4,-2.9195271928306883
mp-1205080,Ba2PIO4,-3.067347023571428
mp-1205081,Ba3GaSe4Cl,-1.818248212515
mp-1205086,Yb3Sn13Ir4,-0.4760151567500003
mp-1205094,SmAgS2,-1.6411463229166667
mp-1205097,NaFe7(PO4)6,-2.427414120695488
mp-1205111,RbOs2O9,-1.4977984926041674
mp-1205112,CsNa2H3(SO4)3,-2.054969406936478
mp-1205113,VN3O10,-1.214467445867142
mp-1205121,CsBi,-0.365230135840517
mp-1205124,Ho5(Si5Ir2)2,-0.8956638344736833
mp-1205128,Ho5Zr3(Ni4As3)4,-0.8267819308333328
mp-1205130,Re2S2O13,-1.934156175588236
mp-1205135,Pr5P12Ru19,-0.8171535482738095
mp-1205140,Nd6Al43Cr4,-0.2591801886792452
mp-1205144,Mg3(Al9W)2,-0.1015249650000001
mp-1205148,PrH20S4N5O16,-1.4977186627565218
mp-1205160,Rb9Fe7(PO4)10,-2.528286009821428
mp-1205167,Na3LiY3P3CO15F2,-3.145570592982533
mp-1205173,Re2P3N2(Cl5O)3,-1.3041359185249717
mp-1205180,Tm3C4,-0.3652479542857139
mp-1205181,InP2H9(NO4)2,-1.646838986112858
mp-1205185,Rb3Sc2(AsO4)3,-2.480187197
mp-1205187,SrH8(ClO6)2,-1.299485945310724
mp-1205188,NdCO4,-2.511870476111111
mp-1205189,Dy11Cd45,-0.243412829642857
mp-1205197,Dy3Ga2,-0.5373375597500001
mp-1205201,Dy3Rh2,-0.7769543661428567
mp-1205210,NdRe3(H2O5)3,-2.0820348385187994
mp-1205215,KUHSO7,-2.641557779408636
mp-1205217,InMoHSeO7,-1.7294168017921587
mp-1205240,AlB3(H5N)6,-0.4927849506969991
mp-1205242,La(NO3)3,-1.58215345631846
mp-1205245,B11H2CCl11,-0.8927562119906662
mp-1205254,U6Al43W4,-0.1595822816981139
mp-1205264,Na7Mn5P3H6O15F13,-2.5037548686169413
mp-1205288,Mg48Si34H62O147,-2.661877519375224
mp-1205290,Zn6Ru,-0.1441363125793653
mp-1205297,Tb2S3,-2.4671534173750005
mp-1205300,Tm(Co2B)6,-0.344514125438596
mp-1205304,TiI2O7,-1.599589407875
mp-1205305,Tb2CoGe2,-0.742457813
mp-1205313,SmAgAs2,-0.7676504679166669
mp-1205316,BaAgSb,-0.7845136744444444
mp-1205318,BaAgBi,-0.659394456111111
mp-1205323,Tb6OsI10,-1.205878676470588
mp-1205326,Tb7PtI12,-1.299591015
mp-1205330,Ca3SiO,-1.6184504442500007
mp-1205332,Te6RhBr3,-0.3301456784999999
mp-1205333,CaTiGeO5,-3.0581851182812496
mp-1205336,BaMnO3,-2.4941284378730346
mp-1205337,Ca3(AlP2)2,-1.0105656038095232
mp-1205338,Ca3(AlAs2)2,-0.9545049883333334
mp-1205339,Ge(SeO3)2,-1.515959088020834
mp-1205341,NaCoSO4F,-2.195470717414376
mp-1205342,KAg3Te2,-0.3793077513333334
mp-1205344,PrSbO4,-2.798711034583333
mp-1205345,Sb2O3,-1.75442156175
mp-1205351,La4Se3N2,-1.9548486924212505
mp-1205352,BaPd(SeO3)2,-1.71075366021875
mp-1205354,Sc2Se3,-1.7062467974062492
mp-1205359,Ba2UCuO6,-2.99834870675
mp-1205361,Te6RhI3,-0.2343182174999999
mp-1205363,Ba2NdGaSe5,-1.6427850390798615
mp-1205365,La2Zn5Sn,-0.4789924449999998
mp-1205366,LuRhO3,-2.62606037025
mp-1205369,YPdPb,-0.7354593344444448
mp-1205372,VCl4,-1.6230283201079998
mp-1205373,Y6CoBr10,-1.5773107779411764
mp-1205378,LuCuPbSe3,-0.9841535153385412
mp-1205379,GeH4,-0.0098462773960001
mp-1205381,Cs4FeO3,-1.442715487559267
mp-1205382,Ba3YIr2O9,-2.539374177972221
mp-1205383,Nd2GeO5,-3.27339430265625
mp-1205384,LaTe2,-1.4002522050000004
mp-1205385,Dy4CrGa12,-0.4991091576470585
mp-1205386,SrAl2(SiO4)2,-3.451232202628205
mp-1205388,Rb2Pd3S4,-1.023144421388889
mp-1205391,TaSbO4,-2.718767399166667
mp-1205392,AgSbS2,-0.520899058645834
mp-1205394,K2SbF5,-2.9439935208687498
mp-1205395,BaMg(CO3)2,-2.5722018320833344
mp-1205396,PrMn7O12,-2.248993891215309
mp-1205397,Ba2YInSe5,-1.6220756094502318
mp-1205398,Ce(Co2B)6,-0.3558793218421041
mp-1205399,BaZn(SeO3)2,-1.92612176096875
mp-1205400,Ba2NdInTe5,-1.3012954449999998
mp-1205402,Ba3SmIr2O9,-2.512235281638888
mp-1205406,U3VSb5,-0.2773631183333328
mp-1205407,Sm3Rh,-0.4621968218750005
mp-1205421,ZrSCl6O,-1.805974989603889
mp-1205425,Ba8CaY2U4O24,-3.58196246568376
mp-1205433,Dy(InPt)4,-0.6953683805555555
mp-1205446,Hg8Br3O4,-0.5200886644999997
mp-1205449,K3TiCl6,-2.179953549356
mp-1205454,Hf2InNi2,-0.5001232160000001
mp-1205464,Gd6CoCl10,-2.295877053388235
mp-1205465,Ce4Mg7Ge6,-0.4868039396078429
mp-1205468,BaNb8O14,-2.8724512439673915
mp-1205471,K10Hf3Mo12PbO48,-2.4072347199999986
mp-1205473,Zr5AgPb3,-0.2467645009259264
mp-1205478,SbSe5F6,-1.6052807288632296
mp-1205479,K2SbF5,-2.939489316550568
mp-1205481,Pr3(TaN3)2,-1.5404779881163622
mp-1205483,Tm2(CN2)3,-1.0036654628133332
mp-1205484,Pr2(CuSn2)3,-0.3864411872727276
mp-1205487,Er7(TePd)2,-0.8397705036363635
mp-1205489,Er7(TeRh)2,-0.8851258281818185
mp-1205490,La3(AgSn)4,-0.5975579816666667
mp-1205494,Nd2MgSi2,-0.6772911916666665